% Model:              pyfar_example_model_pabe.mph
% Version:            COMSOL 6.2.0.339
% Date:               Feb 2 2024, 08:46
% Dimension:          3
% Nodes:              4
% Expressions:        2
% Description:        1 m/s
% Length unit:        m
% X,Y,Z,1e-3[m/s]*(1e3) (m/s) @ freq=100,1e-3[m/s]*(1e3) (m/s) @ freq=500
-0.005000000000000001,-0.004999999999999999,6.123233995736766E-19,1,1
-0.004999999999999999,0.005000000000000001,-6.123233995736766E-19,1,1
0.004999999999999999,-0.005000000000000001,6.123233995736766E-19,1,1
0.005000000000000001,0.004999999999999999,-6.123233995736766E-19,1,1
