% Model:              pyfar_example_model_pabe.mph
% Version:            COMSOL 6.0.0.354
% Date:               Sep 1 2022, 14:21
% Dimension:          3
% Nodes:              8
% Expressions:        120
% Description:        Intensity, x component, Intensity, y component, Intensity, z component
% Length unit:        m
% x                       y                        z                        pabe.Ix (W/m^2) @ freq=100, theta=0, phi=0 pabe.Iy (W/m^2) @ freq=100, theta=0, phi=0 pabe.Iz (W/m^2) @ freq=100, theta=0, phi=0 pabe.Ix (W/m^2) @ freq=500, theta=0, phi=0 pabe.Iy (W/m^2) @ freq=500, theta=0, phi=0 pabe.Iz (W/m^2) @ freq=500, theta=0, phi=0 pabe.Ix (W/m^2) @ freq=100, theta=0, phi=1.5708 pabe.Iy (W/m^2) @ freq=100, theta=0, phi=1.5708 pabe.Iz (W/m^2) @ freq=100, theta=0, phi=1.5708 pabe.Ix (W/m^2) @ freq=500, theta=0, phi=1.5708 pabe.Iy (W/m^2) @ freq=500, theta=0, phi=1.5708 pabe.Iz (W/m^2) @ freq=500, theta=0, phi=1.5708 pabe.Ix (W/m^2) @ freq=100, theta=0, phi=3.1416 pabe.Iy (W/m^2) @ freq=100, theta=0, phi=3.1416 pabe.Iz (W/m^2) @ freq=100, theta=0, phi=3.1416 pabe.Ix (W/m^2) @ freq=500, theta=0, phi=3.1416 pabe.Iy (W/m^2) @ freq=500, theta=0, phi=3.1416 pabe.Iz (W/m^2) @ freq=500, theta=0, phi=3.1416 pabe.Ix (W/m^2) @ freq=100, theta=0, phi=4.7124 pabe.Iy (W/m^2) @ freq=100, theta=0, phi=4.7124 pabe.Iz (W/m^2) @ freq=100, theta=0, phi=4.7124 pabe.Ix (W/m^2) @ freq=500, theta=0, phi=4.7124 pabe.Iy (W/m^2) @ freq=500, theta=0, phi=4.7124 pabe.Iz (W/m^2) @ freq=500, theta=0, phi=4.7124 pabe.Ix (W/m^2) @ freq=100, theta=0.7854, phi=0 pabe.Iy (W/m^2) @ freq=100, theta=0.7854, phi=0 pabe.Iz (W/m^2) @ freq=100, theta=0.7854, phi=0 pabe.Ix (W/m^2) @ freq=500, theta=0.7854, phi=0 pabe.Iy (W/m^2) @ freq=500, theta=0.7854, phi=0 pabe.Iz (W/m^2) @ freq=500, theta=0.7854, phi=0 pabe.Ix (W/m^2) @ freq=100, theta=0.7854, phi=1.5708 pabe.Iy (W/m^2) @ freq=100, theta=0.7854, phi=1.5708 pabe.Iz (W/m^2) @ freq=100, theta=0.7854, phi=1.5708 pabe.Ix (W/m^2) @ freq=500, theta=0.7854, phi=1.5708 pabe.Iy (W/m^2) @ freq=500, theta=0.7854, phi=1.5708 pabe.Iz (W/m^2) @ freq=500, theta=0.7854, phi=1.5708 pabe.Ix (W/m^2) @ freq=100, theta=0.7854, phi=3.1416 pabe.Iy (W/m^2) @ freq=100, theta=0.7854, phi=3.1416 pabe.Iz (W/m^2) @ freq=100, theta=0.7854, phi=3.1416 pabe.Ix (W/m^2) @ freq=500, theta=0.7854, phi=3.1416 pabe.Iy (W/m^2) @ freq=500, theta=0.7854, phi=3.1416 pabe.Iz (W/m^2) @ freq=500, theta=0.7854, phi=3.1416 pabe.Ix (W/m^2) @ freq=100, theta=0.7854, phi=4.7124 pabe.Iy (W/m^2) @ freq=100, theta=0.7854, phi=4.7124 pabe.Iz (W/m^2) @ freq=100, theta=0.7854, phi=4.7124 pabe.Ix (W/m^2) @ freq=500, theta=0.7854, phi=4.7124 pabe.Iy (W/m^2) @ freq=500, theta=0.7854, phi=4.7124 pabe.Iz (W/m^2) @ freq=500, theta=0.7854, phi=4.7124 pabe.Ix (W/m^2) @ freq=100, theta=1.5708, phi=0 pabe.Iy (W/m^2) @ freq=100, theta=1.5708, phi=0 pabe.Iz (W/m^2) @ freq=100, theta=1.5708, phi=0 pabe.Ix (W/m^2) @ freq=500, theta=1.5708, phi=0 pabe.Iy (W/m^2) @ freq=500, theta=1.5708, phi=0 pabe.Iz (W/m^2) @ freq=500, theta=1.5708, phi=0 pabe.Ix (W/m^2) @ freq=100, theta=1.5708, phi=1.5708 pabe.Iy (W/m^2) @ freq=100, theta=1.5708, phi=1.5708 pabe.Iz (W/m^2) @ freq=100, theta=1.5708, phi=1.5708 pabe.Ix (W/m^2) @ freq=500, theta=1.5708, phi=1.5708 pabe.Iy (W/m^2) @ freq=500, theta=1.5708, phi=1.5708 pabe.Iz (W/m^2) @ freq=500, theta=1.5708, phi=1.5708 pabe.Ix (W/m^2) @ freq=100, theta=1.5708, phi=3.1416 pabe.Iy (W/m^2) @ freq=100, theta=1.5708, phi=3.1416 pabe.Iz (W/m^2) @ freq=100, theta=1.5708, phi=3.1416 pabe.Ix (W/m^2) @ freq=500, theta=1.5708, phi=3.1416 pabe.Iy (W/m^2) @ freq=500, theta=1.5708, phi=3.1416 pabe.Iz (W/m^2) @ freq=500, theta=1.5708, phi=3.1416 pabe.Ix (W/m^2) @ freq=100, theta=1.5708, phi=4.7124 pabe.Iy (W/m^2) @ freq=100, theta=1.5708, phi=4.7124 pabe.Iz (W/m^2) @ freq=100, theta=1.5708, phi=4.7124 pabe.Ix (W/m^2) @ freq=500, theta=1.5708, phi=4.7124 pabe.Iy (W/m^2) @ freq=500, theta=1.5708, phi=4.7124 pabe.Iz (W/m^2) @ freq=500, theta=1.5708, phi=4.7124 pabe.Ix (W/m^2) @ freq=100, theta=2.3562, phi=0 pabe.Iy (W/m^2) @ freq=100, theta=2.3562, phi=0 pabe.Iz (W/m^2) @ freq=100, theta=2.3562, phi=0 pabe.Ix (W/m^2) @ freq=500, theta=2.3562, phi=0 pabe.Iy (W/m^2) @ freq=500, theta=2.3562, phi=0 pabe.Iz (W/m^2) @ freq=500, theta=2.3562, phi=0 pabe.Ix (W/m^2) @ freq=100, theta=2.3562, phi=1.5708 pabe.Iy (W/m^2) @ freq=100, theta=2.3562, phi=1.5708 pabe.Iz (W/m^2) @ freq=100, theta=2.3562, phi=1.5708 pabe.Ix (W/m^2) @ freq=500, theta=2.3562, phi=1.5708 pabe.Iy (W/m^2) @ freq=500, theta=2.3562, phi=1.5708 pabe.Iz (W/m^2) @ freq=500, theta=2.3562, phi=1.5708 pabe.Ix (W/m^2) @ freq=100, theta=2.3562, phi=3.1416 pabe.Iy (W/m^2) @ freq=100, theta=2.3562, phi=3.1416 pabe.Iz (W/m^2) @ freq=100, theta=2.3562, phi=3.1416 pabe.Ix (W/m^2) @ freq=500, theta=2.3562, phi=3.1416 pabe.Iy (W/m^2) @ freq=500, theta=2.3562, phi=3.1416 pabe.Iz (W/m^2) @ freq=500, theta=2.3562, phi=3.1416 pabe.Ix (W/m^2) @ freq=100, theta=2.3562, phi=4.7124 pabe.Iy (W/m^2) @ freq=100, theta=2.3562, phi=4.7124 pabe.Iz (W/m^2) @ freq=100, theta=2.3562, phi=4.7124 pabe.Ix (W/m^2) @ freq=500, theta=2.3562, phi=4.7124 pabe.Iy (W/m^2) @ freq=500, theta=2.3562, phi=4.7124 pabe.Iz (W/m^2) @ freq=500, theta=2.3562, phi=4.7124 pabe.Ix (W/m^2) @ freq=100, theta=3.1416, phi=0 pabe.Iy (W/m^2) @ freq=100, theta=3.1416, phi=0 pabe.Iz (W/m^2) @ freq=100, theta=3.1416, phi=0 pabe.Ix (W/m^2) @ freq=500, theta=3.1416, phi=0 pabe.Iy (W/m^2) @ freq=500, theta=3.1416, phi=0 pabe.Iz (W/m^2) @ freq=500, theta=3.1416, phi=0 pabe.Ix (W/m^2) @ freq=100, theta=3.1416, phi=1.5708 pabe.Iy (W/m^2) @ freq=100, theta=3.1416, phi=1.5708 pabe.Iz (W/m^2) @ freq=100, theta=3.1416, phi=1.5708 pabe.Ix (W/m^2) @ freq=500, theta=3.1416, phi=1.5708 pabe.Iy (W/m^2) @ freq=500, theta=3.1416, phi=1.5708 pabe.Iz (W/m^2) @ freq=500, theta=3.1416, phi=1.5708 pabe.Ix (W/m^2) @ freq=100, theta=3.1416, phi=3.1416 pabe.Iy (W/m^2) @ freq=100, theta=3.1416, phi=3.1416 pabe.Iz (W/m^2) @ freq=100, theta=3.1416, phi=3.1416 pabe.Ix (W/m^2) @ freq=500, theta=3.1416, phi=3.1416 pabe.Iy (W/m^2) @ freq=500, theta=3.1416, phi=3.1416 pabe.Iz (W/m^2) @ freq=500, theta=3.1416, phi=3.1416 pabe.Ix (W/m^2) @ freq=100, theta=3.1416, phi=4.7124 pabe.Iy (W/m^2) @ freq=100, theta=3.1416, phi=4.7124 pabe.Iz (W/m^2) @ freq=100, theta=3.1416, phi=4.7124 pabe.Ix (W/m^2) @ freq=500, theta=3.1416, phi=4.7124 pabe.Iy (W/m^2) @ freq=500, theta=3.1416, phi=4.7124 pabe.Iz (W/m^2) @ freq=500, theta=3.1416, phi=4.7124
-0.5                      -0.5                     -0.5                     -1.0535540378988267E-8   -1.0535540378988267E-8   -1.0535891577682339E-8   -1.0536107227218496E-8   -1.0536107227218496E-8   -1.0536458427364774E-8   -1.0535540378988267E-8   -1.0535540378988267E-8   -1.0535891577682339E-8   -1.0536107227218496E-8   -1.0536107227218496E-8   -1.0536458427364774E-8   -1.0535540378988267E-8   -1.0535540378988267E-8   -1.0535891577682339E-8   -1.0536107227218496E-8   -1.0536107227218496E-8   -1.0536458427364774E-8   -1.0535540378988267E-8   -1.0535540378988267E-8   -1.0535891577682339E-8   -1.0536107227218496E-8   -1.0536107227218496E-8   -1.0536458427364774E-8   -1.0535696995896035E-8   -1.0535345814514832E-8   -1.0535696995896033E-8   -1.0538618545631625E-8   -1.0538267231979556E-8   -1.0538618545631625E-8   -1.053534581451484E-8    -1.0535696995896041E-8   -1.0535696995896041E-8   -1.0538267231979556E-8   -1.0538618545631625E-8   -1.0538618545631625E-8   -1.0535734962755898E-8   -1.053573495121377E-8    -1.0535734962755898E-8   -1.0533947432793473E-8   -1.053394750845005E-8    -1.0533947432793473E-8   -1.053573495121377E-8    -1.0535734962755898E-8   -1.0535734962755898E-8   -1.053394750845005E-8    -1.0533947432793471E-8   -1.0533947432793471E-8   -1.0535891577682334E-8   -1.0535540378988266E-8   -1.0535540378988266E-8   -1.0536458427364777E-8   -1.0536107227218494E-8   -1.0536107227218494E-8   -1.0535540378988267E-8   -1.0535891577682337E-8   -1.0535540378988267E-8   -1.0536107227218494E-8   -1.0536458427364777E-8   -1.0536107227218494E-8   -1.0535891577682337E-8   -1.0535540378988267E-8   -1.0535540378988267E-8   -1.0536458427364777E-8   -1.0536107227218494E-8   -1.0536107227218494E-8   -1.053554037898827E-8    -1.0535891577682339E-8   -1.053554037898827E-8    -1.0536107227218494E-8   -1.0536458427364777E-8   -1.0536107227218494E-8   -1.0535734962755893E-8   -1.0535734951213765E-8   -1.0535734962755893E-8   -1.0533947432793474E-8   -1.0533947508450052E-8   -1.0533947432793474E-8   -1.053573495121376E-8    -1.0535734962755888E-8   -1.0535734962755888E-8   -1.0533947508450049E-8   -1.053394743279347E-8    -1.053394743279347E-8    -1.0535696995896035E-8   -1.0535345814514832E-8   -1.0535696995896038E-8   -1.0538618545631625E-8   -1.0538267231979556E-8   -1.0538618545631625E-8   -1.0535345814514838E-8   -1.053569699589604E-8    -1.053569699589604E-8    -1.0538267231979554E-8   -1.0538618545631625E-8   -1.0538618545631624E-8   -1.0535540378988267E-8   -1.0535540378988267E-8   -1.0535891577682337E-8   -1.0536107227218496E-8   -1.0536107227218496E-8   -1.0536458427364776E-8   -1.0535540378988267E-8   -1.0535540378988267E-8   -1.0535891577682339E-8   -1.0536107227218496E-8   -1.0536107227218496E-8   -1.0536458427364774E-8   -1.0535540378988272E-8   -1.0535540378988272E-8   -1.053589157768234E-8    -1.0536107227218489E-8   -1.0536107227218489E-8   -1.053645842736477E-8    -1.0535540378988276E-8   -1.0535540378988276E-8   -1.053589157768234E-8    -1.053610722721849E-8    -1.053610722721849E-8    -1.053645842736477E-8
0.5                       -0.5                     -0.5                     1.0535540378988267E-8    -1.0535540378988267E-8   -1.0535891577682337E-8   1.0536107227218496E-8    -1.0536107227218494E-8   -1.0536458427364776E-8   1.0535540378988267E-8    -1.0535540378988267E-8   -1.0535891577682337E-8   1.0536107227218496E-8    -1.0536107227218494E-8   -1.0536458427364776E-8   1.0535540378988267E-8    -1.0535540378988267E-8   -1.0535891577682337E-8   1.0536107227218496E-8    -1.0536107227218494E-8   -1.0536458427364776E-8   1.0535540378988267E-8    -1.0535540378988267E-8   -1.0535891577682337E-8   1.0536107227218496E-8    -1.0536107227218494E-8   -1.0536458427364776E-8   1.0535734962755888E-8    -1.053573495121376E-8    -1.0535734962755888E-8   1.0533947432793471E-8    -1.053394750845005E-8    -1.0533947432793471E-8   1.0535345814514842E-8    -1.0535696995896043E-8   -1.0535696995896043E-8   1.0538267231979556E-8    -1.0538618545631625E-8   -1.0538618545631625E-8   1.0535696995896046E-8    -1.0535345814514842E-8   -1.0535696995896043E-8   1.0538618545631627E-8    -1.0538267231979557E-8   -1.0538618545631627E-8   1.0535734951213768E-8    -1.0535734962755896E-8   -1.0535734962755896E-8   1.053394750845005E-8     -1.0533947432793471E-8   -1.0533947432793471E-8   1.0535891577682334E-8    -1.0535540378988266E-8   -1.0535540378988266E-8   1.0536458427364777E-8    -1.0536107227218494E-8   -1.0536107227218494E-8   1.053554037898827E-8     -1.0535891577682337E-8   -1.053554037898827E-8    1.0536107227218494E-8    -1.0536458427364777E-8   -1.0536107227218494E-8   1.0535891577682337E-8    -1.0535540378988267E-8   -1.0535540378988267E-8   1.0536458427364777E-8    -1.0536107227218494E-8   -1.0536107227218494E-8   1.0535540378988267E-8    -1.0535891577682337E-8   -1.053554037898827E-8    1.0536107227218496E-8    -1.0536458427364777E-8   -1.0536107227218494E-8   1.0535696995896038E-8    -1.0535345814514833E-8   -1.0535696995896038E-8   1.0538618545631629E-8    -1.053826723197956E-8    -1.0538618545631629E-8   1.053573495121376E-8     -1.0535734962755888E-8   -1.0535734962755888E-8   1.053394750845005E-8     -1.0533947432793473E-8   -1.0533947432793473E-8   1.0535734962755893E-8    -1.0535734951213765E-8   -1.0535734962755893E-8   1.0533947432793471E-8    -1.053394750845005E-8    -1.0533947432793471E-8   1.0535345814514838E-8    -1.053569699589604E-8    -1.053569699589604E-8    1.0538267231979556E-8    -1.0538618545631625E-8   -1.0538618545631625E-8   1.0535540378988267E-8    -1.0535540378988267E-8   -1.0535891577682337E-8   1.0536107227218496E-8    -1.0536107227218494E-8   -1.0536458427364777E-8   1.0535540378988267E-8    -1.0535540378988267E-8   -1.0535891577682337E-8   1.0536107227218494E-8    -1.0536107227218496E-8   -1.0536458427364776E-8   1.0535540378988272E-8    -1.0535540378988274E-8   -1.053589157768234E-8    1.053610722721849E-8     -1.053610722721849E-8    -1.0536458427364772E-8   1.0535540378988277E-8    -1.0535540378988277E-8   -1.0535891577682342E-8   1.053610722721849E-8     -1.0536107227218492E-8   -1.0536458427364772E-8
-0.5                      0.5                      -0.5                     -1.0535540378988267E-8   1.0535540378988267E-8    -1.0535891577682337E-8   -1.0536107227218496E-8   1.0536107227218494E-8    -1.0536458427364776E-8   -1.0535540378988267E-8   1.0535540378988267E-8    -1.0535891577682337E-8   -1.0536107227218496E-8   1.0536107227218494E-8    -1.0536458427364776E-8   -1.0535540378988267E-8   1.0535540378988267E-8    -1.0535891577682337E-8   -1.0536107227218496E-8   1.0536107227218494E-8    -1.0536458427364776E-8   -1.0535540378988267E-8   1.0535540378988267E-8    -1.0535891577682337E-8   -1.0536107227218496E-8   1.0536107227218494E-8    -1.0536458427364776E-8   -1.0535696995896038E-8   1.0535345814514832E-8    -1.0535696995896035E-8   -1.0538618545631625E-8   1.0538267231979556E-8    -1.0538618545631625E-8   -1.0535734951213767E-8   1.0535734962755894E-8    -1.0535734962755894E-8   -1.053394750845005E-8    1.0533947432793473E-8    -1.0533947432793473E-8   -1.0535734962755898E-8   1.053573495121377E-8     -1.0535734962755898E-8   -1.0533947432793473E-8   1.0533947508450052E-8    -1.0533947432793473E-8   -1.0535345814514842E-8   1.0535696995896041E-8    -1.0535696995896043E-8   -1.0538267231979556E-8   1.0538618545631625E-8    -1.0538618545631625E-8   -1.053589157768233E-8    1.0535540378988266E-8    -1.0535540378988266E-8   -1.0536458427364776E-8   1.0536107227218494E-8    -1.0536107227218494E-8   -1.0535540378988267E-8   1.0535891577682337E-8    -1.0535540378988267E-8   -1.0536107227218494E-8   1.0536458427364777E-8    -1.0536107227218494E-8   -1.0535891577682337E-8   1.053554037898827E-8     -1.053554037898827E-8    -1.0536458427364777E-8   1.0536107227218494E-8    -1.0536107227218494E-8   -1.053554037898827E-8    1.0535891577682339E-8    -1.053554037898827E-8    -1.0536107227218494E-8   1.0536458427364777E-8    -1.0536107227218494E-8   -1.053573496275589E-8    1.0535734951213765E-8    -1.053573496275589E-8    -1.0533947432793474E-8   1.0533947508450052E-8    -1.0533947432793474E-8   -1.0535345814514832E-8   1.0535696995896038E-8    -1.0535696995896035E-8   -1.0538267231979557E-8   1.0538618545631627E-8    -1.0538618545631627E-8   -1.0535696995896038E-8   1.0535345814514837E-8    -1.0535696995896035E-8   -1.0538618545631624E-8   1.0538267231979556E-8    -1.0538618545631625E-8   -1.0535734951213767E-8   1.0535734962755894E-8    -1.0535734962755894E-8   -1.0533947508450047E-8   1.053394743279347E-8     -1.053394743279347E-8    -1.0535540378988267E-8   1.0535540378988267E-8    -1.0535891577682337E-8   -1.0536107227218496E-8   1.0536107227218496E-8    -1.0536458427364776E-8   -1.0535540378988267E-8   1.0535540378988267E-8    -1.0535891577682337E-8   -1.0536107227218494E-8   1.0536107227218496E-8    -1.0536458427364776E-8   -1.0535540378988274E-8   1.0535540378988272E-8    -1.053589157768234E-8    -1.053610722721849E-8    1.053610722721849E-8     -1.0536458427364772E-8   -1.0535540378988276E-8   1.0535540378988276E-8    -1.0535891577682342E-8   -1.053610722721849E-8    1.053610722721849E-8     -1.0536458427364772E-8
0.5                       0.5                      -0.5                     1.053554037898827E-8     1.053554037898827E-8     -1.0535891577682339E-8   1.0536107227218496E-8    1.0536107227218496E-8    -1.0536458427364776E-8   1.053554037898827E-8     1.053554037898827E-8     -1.0535891577682339E-8   1.0536107227218496E-8    1.0536107227218496E-8    -1.0536458427364776E-8   1.053554037898827E-8     1.053554037898827E-8     -1.0535891577682339E-8   1.0536107227218496E-8    1.0536107227218496E-8    -1.0536458427364776E-8   1.053554037898827E-8     1.053554037898827E-8     -1.0535891577682339E-8   1.0536107227218496E-8    1.0536107227218496E-8    -1.0536458427364776E-8   1.0535734962755888E-8    1.053573495121376E-8     -1.0535734962755888E-8   1.053394743279347E-8     1.0533947508450049E-8    -1.053394743279347E-8    1.0535734951213767E-8    1.0535734962755894E-8    -1.0535734962755894E-8   1.053394750845005E-8     1.0533947432793471E-8    -1.0533947432793471E-8   1.0535696995896043E-8    1.0535345814514842E-8    -1.0535696995896046E-8   1.0538618545631629E-8    1.0538267231979559E-8    -1.0538618545631627E-8   1.0535345814514842E-8    1.0535696995896043E-8    -1.0535696995896041E-8   1.0538267231979556E-8    1.0538618545631625E-8    -1.0538618545631625E-8   1.053589157768233E-8     1.0535540378988266E-8    -1.0535540378988266E-8   1.0536458427364776E-8    1.0536107227218494E-8    -1.0536107227218494E-8   1.053554037898827E-8     1.0535891577682337E-8    -1.053554037898827E-8    1.0536107227218494E-8    1.0536458427364777E-8    -1.0536107227218494E-8   1.0535891577682337E-8    1.053554037898827E-8     -1.053554037898827E-8    1.0536458427364777E-8    1.0536107227218494E-8    -1.0536107227218494E-8   1.0535540378988267E-8    1.0535891577682337E-8    -1.053554037898827E-8    1.0536107227218496E-8    1.0536458427364777E-8    -1.0536107227218494E-8   1.053569699589604E-8     1.0535345814514838E-8    -1.053569699589604E-8    1.0538618545631629E-8    1.053826723197956E-8     -1.053861854563163E-8    1.0535345814514832E-8    1.0535696995896035E-8    -1.0535696995896038E-8   1.0538267231979557E-8    1.0538618545631627E-8    -1.0538618545631625E-8   1.053573496275589E-8     1.0535734951213762E-8    -1.053573496275589E-8    1.0533947432793473E-8    1.0533947508450049E-8    -1.0533947432793473E-8   1.0535734951213767E-8    1.0535734962755893E-8    -1.0535734962755893E-8   1.0533947508450045E-8    1.053394743279347E-8     -1.053394743279347E-8    1.0535540378988267E-8    1.0535540378988267E-8    -1.0535891577682337E-8   1.0536107227218494E-8    1.0536107227218494E-8    -1.0536458427364776E-8   1.053554037898827E-8     1.053554037898827E-8     -1.0535891577682339E-8   1.0536107227218496E-8    1.0536107227218496E-8    -1.0536458427364776E-8   1.0535540378988272E-8    1.0535540378988272E-8    -1.053589157768234E-8    1.053610722721849E-8     1.053610722721849E-8     -1.0536458427364772E-8   1.0535540378988276E-8    1.0535540378988276E-8    -1.0535891577682342E-8   1.053610722721849E-8     1.0536107227218492E-8    -1.0536458427364772E-8
-0.5                      -0.5                     0.5                      -1.0535540378988267E-8   -1.0535540378988267E-8   1.0535891577682339E-8    -1.0536107227218496E-8   -1.0536107227218496E-8   1.0536458427364774E-8    -1.0535540378988267E-8   -1.0535540378988267E-8   1.0535891577682339E-8    -1.0536107227218496E-8   -1.0536107227218496E-8   1.0536458427364774E-8    -1.0535540378988267E-8   -1.0535540378988267E-8   1.0535891577682339E-8    -1.0536107227218496E-8   -1.0536107227218496E-8   1.0536458427364774E-8    -1.0535540378988267E-8   -1.0535540378988267E-8   1.0535891577682339E-8    -1.0536107227218496E-8   -1.0536107227218496E-8   1.0536458427364774E-8    -1.053573496275589E-8    -1.0535734951213762E-8   1.053573496275589E-8     -1.0533947432793473E-8   -1.053394750845005E-8    1.0533947432793473E-8    -1.0535734951213768E-8   -1.0535734962755896E-8   1.0535734962755896E-8    -1.0533947508450049E-8   -1.053394743279347E-8    1.053394743279347E-8     -1.0535696995896043E-8   -1.0535345814514842E-8   1.0535696995896046E-8    -1.0538618545631627E-8   -1.0538267231979557E-8   1.0538618545631627E-8    -1.0535345814514842E-8   -1.0535696995896043E-8   1.0535696995896041E-8    -1.0538267231979556E-8   -1.0538618545631625E-8   1.0538618545631625E-8    -1.053589157768233E-8    -1.0535540378988266E-8   1.0535540378988266E-8    -1.0536458427364777E-8   -1.0536107227218494E-8   1.0536107227218494E-8    -1.0535540378988267E-8   -1.0535891577682337E-8   1.053554037898827E-8     -1.0536107227218494E-8   -1.0536458427364777E-8   1.0536107227218494E-8    -1.0535891577682337E-8   -1.0535540378988267E-8   1.053554037898827E-8     -1.0536458427364777E-8   -1.0536107227218494E-8   1.0536107227218494E-8    -1.053554037898827E-8    -1.0535891577682339E-8   1.053554037898827E-8     -1.0536107227218494E-8   -1.0536458427364777E-8   1.0536107227218494E-8    -1.0535696995896038E-8   -1.0535345814514833E-8   1.0535696995896038E-8    -1.0538618545631629E-8   -1.053826723197956E-8    1.0538618545631629E-8    -1.0535345814514832E-8   -1.0535696995896035E-8   1.0535696995896038E-8    -1.0538267231979557E-8   -1.0538618545631627E-8   1.0538618545631627E-8    -1.0535734962755888E-8   -1.053573495121376E-8    1.0535734962755888E-8    -1.053394743279347E-8    -1.0533947508450049E-8   1.053394743279347E-8     -1.0535734951213767E-8   -1.0535734962755893E-8   1.0535734962755893E-8    -1.0533947508450049E-8   -1.053394743279347E-8    1.053394743279347E-8     -1.0535540378988267E-8   -1.0535540378988267E-8   1.0535891577682337E-8    -1.0536107227218496E-8   -1.0536107227218496E-8   1.0536458427364776E-8    -1.0535540378988267E-8   -1.0535540378988267E-8   1.0535891577682339E-8    -1.0536107227218496E-8   -1.0536107227218496E-8   1.0536458427364774E-8    -1.0535540378988272E-8   -1.0535540378988272E-8   1.053589157768234E-8     -1.0536107227218489E-8   -1.0536107227218489E-8   1.053645842736477E-8     -1.0535540378988276E-8   -1.0535540378988276E-8   1.053589157768234E-8     -1.053610722721849E-8    -1.053610722721849E-8    1.053645842736477E-8
0.5                       -0.5                     0.5                      1.0535540378988267E-8    -1.0535540378988267E-8   1.0535891577682337E-8    1.0536107227218496E-8    -1.0536107227218494E-8   1.0536458427364776E-8    1.0535540378988267E-8    -1.0535540378988267E-8   1.0535891577682337E-8    1.0536107227218496E-8    -1.0536107227218494E-8   1.0536458427364776E-8    1.0535540378988267E-8    -1.0535540378988267E-8   1.0535891577682337E-8    1.0536107227218496E-8    -1.0536107227218494E-8   1.0536458427364776E-8    1.0535540378988267E-8    -1.0535540378988267E-8   1.0535891577682337E-8    1.0536107227218496E-8    -1.0536107227218494E-8   1.0536458427364776E-8    1.0535696995896033E-8    -1.0535345814514832E-8   1.0535696995896035E-8    1.0538618545631625E-8    -1.0538267231979556E-8   1.0538618545631625E-8    1.0535734951213768E-8    -1.0535734962755893E-8   1.0535734962755893E-8    1.053394750845005E-8     -1.0533947432793471E-8   1.0533947432793471E-8    1.05357349627559E-8      -1.053573495121377E-8    1.05357349627559E-8      1.0533947432793473E-8    -1.053394750845005E-8    1.0533947432793473E-8    1.0535345814514842E-8    -1.0535696995896041E-8   1.0535696995896043E-8    1.0538267231979556E-8    -1.0538618545631625E-8   1.0538618545631625E-8    1.053589157768233E-8     -1.0535540378988266E-8   1.0535540378988266E-8    1.0536458427364777E-8    -1.0536107227218494E-8   1.0536107227218494E-8    1.053554037898827E-8     -1.0535891577682337E-8   1.0535540378988272E-8    1.0536107227218496E-8    -1.0536458427364777E-8   1.0536107227218494E-8    1.0535891577682337E-8    -1.0535540378988267E-8   1.053554037898827E-8     1.0536458427364777E-8    -1.0536107227218494E-8   1.0536107227218494E-8    1.0535540378988267E-8    -1.0535891577682337E-8   1.053554037898827E-8     1.0536107227218494E-8    -1.0536458427364777E-8   1.0536107227218494E-8    1.0535734962755893E-8    -1.0535734951213765E-8   1.0535734962755893E-8    1.0533947432793473E-8    -1.0533947508450052E-8   1.0533947432793473E-8    1.0535345814514832E-8    -1.0535696995896038E-8   1.0535696995896035E-8    1.0538267231979557E-8    -1.0538618545631625E-8   1.0538618545631627E-8    1.0535696995896038E-8    -1.0535345814514832E-8   1.0535696995896035E-8    1.0538618545631625E-8    -1.0538267231979556E-8   1.0538618545631625E-8    1.0535734951213765E-8    -1.0535734962755893E-8   1.0535734962755893E-8    1.0533947508450049E-8    -1.053394743279347E-8    1.053394743279347E-8     1.0535540378988267E-8    -1.0535540378988267E-8   1.0535891577682337E-8    1.0536107227218496E-8    -1.0536107227218494E-8   1.0536458427364777E-8    1.0535540378988267E-8    -1.0535540378988267E-8   1.0535891577682337E-8    1.0536107227218494E-8    -1.0536107227218496E-8   1.0536458427364776E-8    1.0535540378988272E-8    -1.0535540378988274E-8   1.053589157768234E-8     1.053610722721849E-8     -1.053610722721849E-8    1.0536458427364772E-8    1.0535540378988277E-8    -1.0535540378988277E-8   1.0535891577682342E-8    1.053610722721849E-8     -1.0536107227218492E-8   1.0536458427364772E-8
-0.5                      0.5                      0.5                      -1.0535540378988267E-8   1.0535540378988267E-8    1.0535891577682337E-8    -1.0536107227218496E-8   1.0536107227218494E-8    1.0536458427364776E-8    -1.0535540378988267E-8   1.0535540378988267E-8    1.0535891577682337E-8    -1.0536107227218496E-8   1.0536107227218494E-8    1.0536458427364776E-8    -1.0535540378988267E-8   1.0535540378988267E-8    1.0535891577682337E-8    -1.0536107227218496E-8   1.0536107227218494E-8    1.0536458427364776E-8    -1.0535540378988267E-8   1.0535540378988267E-8    1.0535891577682337E-8    -1.0536107227218496E-8   1.0536107227218494E-8    1.0536458427364776E-8    -1.053573496275589E-8    1.0535734951213762E-8    1.053573496275589E-8     -1.0533947432793471E-8   1.053394750845005E-8     1.0533947432793471E-8    -1.053534581451484E-8    1.0535696995896041E-8    1.0535696995896041E-8    -1.0538267231979556E-8   1.0538618545631625E-8    1.0538618545631625E-8    -1.0535696995896046E-8   1.0535345814514842E-8    1.0535696995896043E-8    -1.0538618545631627E-8   1.0538267231979559E-8    1.0538618545631629E-8    -1.0535734951213768E-8   1.0535734962755898E-8    1.0535734962755898E-8    -1.0533947508450049E-8   1.053394743279347E-8     1.053394743279347E-8     -1.053589157768233E-8    1.0535540378988266E-8    1.0535540378988266E-8    -1.0536458427364777E-8   1.0536107227218494E-8    1.0536107227218494E-8    -1.0535540378988267E-8   1.0535891577682337E-8    1.053554037898827E-8     -1.0536107227218494E-8   1.0536458427364777E-8    1.0536107227218494E-8    -1.0535891577682337E-8   1.053554037898827E-8     1.0535540378988272E-8    -1.0536458427364777E-8   1.0536107227218496E-8    1.0536107227218494E-8    -1.053554037898827E-8    1.0535891577682339E-8    1.053554037898827E-8     -1.0536107227218494E-8   1.0536458427364777E-8    1.0536107227218494E-8    -1.053569699589604E-8    1.0535345814514838E-8    1.053569699589604E-8     -1.053861854563163E-8    1.053826723197956E-8     1.0538618545631629E-8    -1.0535734951213758E-8   1.0535734962755886E-8    1.0535734962755886E-8    -1.0533947508450052E-8   1.0533947432793471E-8    1.0533947432793471E-8    -1.0535734962755888E-8   1.053573495121376E-8     1.0535734962755888E-8    -1.0533947432793473E-8   1.053394750845005E-8     1.0533947432793473E-8    -1.0535345814514838E-8   1.053569699589604E-8     1.053569699589604E-8     -1.0538267231979554E-8   1.0538618545631624E-8    1.0538618545631625E-8    -1.0535540378988267E-8   1.0535540378988267E-8    1.0535891577682337E-8    -1.0536107227218496E-8   1.0536107227218496E-8    1.0536458427364776E-8    -1.0535540378988267E-8   1.0535540378988267E-8    1.0535891577682337E-8    -1.0536107227218494E-8   1.0536107227218496E-8    1.0536458427364776E-8    -1.0535540378988274E-8   1.0535540378988272E-8    1.053589157768234E-8     -1.053610722721849E-8    1.053610722721849E-8     1.0536458427364772E-8    -1.0535540378988276E-8   1.0535540378988276E-8    1.0535891577682342E-8    -1.053610722721849E-8    1.053610722721849E-8     1.0536458427364772E-8