% Model:              pyfar_example_model_actd.mph
% Version:            COMSOL 6.0.0.405
% Date:               Aug 31 2022, 08:20
% Dimension:          0
% Nodes:              1
% Expressions:        108
% Description:        Intensity, x component, Intensity, y component, Intensity, z component
% pabe.Ix (W/m^2) @ freq=100, theta=0, phi=0,pabe.Iy (W/m^2) @ freq=100, theta=0, phi=0,pabe.Iz (W/m^2) @ freq=100, theta=0, phi=0,pabe.Ix (W/m^2) @ freq=500, theta=0, phi=0,pabe.Iy (W/m^2) @ freq=500, theta=0, phi=0,pabe.Iz (W/m^2) @ freq=500, theta=0, phi=0,pabe.Ix (W/m^2) @ freq=1000, theta=0, phi=0,pabe.Iy (W/m^2) @ freq=1000, theta=0, phi=0,pabe.Iz (W/m^2) @ freq=1000, theta=0, phi=0,pabe.Ix (W/m^2) @ freq=100, theta=0, phi=1.5708,pabe.Iy (W/m^2) @ freq=100, theta=0, phi=1.5708,pabe.Iz (W/m^2) @ freq=100, theta=0, phi=1.5708,pabe.Ix (W/m^2) @ freq=500, theta=0, phi=1.5708,pabe.Iy (W/m^2) @ freq=500, theta=0, phi=1.5708,pabe.Iz (W/m^2) @ freq=500, theta=0, phi=1.5708,pabe.Ix (W/m^2) @ freq=1000, theta=0, phi=1.5708,pabe.Iy (W/m^2) @ freq=1000, theta=0, phi=1.5708,pabe.Iz (W/m^2) @ freq=1000, theta=0, phi=1.5708,pabe.Ix (W/m^2) @ freq=100, theta=0, phi=3.1416,pabe.Iy (W/m^2) @ freq=100, theta=0, phi=3.1416,pabe.Iz (W/m^2) @ freq=100, theta=0, phi=3.1416,pabe.Ix (W/m^2) @ freq=500, theta=0, phi=3.1416,pabe.Iy (W/m^2) @ freq=500, theta=0, phi=3.1416,pabe.Iz (W/m^2) @ freq=500, theta=0, phi=3.1416,pabe.Ix (W/m^2) @ freq=1000, theta=0, phi=3.1416,pabe.Iy (W/m^2) @ freq=1000, theta=0, phi=3.1416,pabe.Iz (W/m^2) @ freq=1000, theta=0, phi=3.1416,pabe.Ix (W/m^2) @ freq=100, theta=0, phi=4.7124,pabe.Iy (W/m^2) @ freq=100, theta=0, phi=4.7124,pabe.Iz (W/m^2) @ freq=100, theta=0, phi=4.7124,pabe.Ix (W/m^2) @ freq=500, theta=0, phi=4.7124,pabe.Iy (W/m^2) @ freq=500, theta=0, phi=4.7124,pabe.Iz (W/m^2) @ freq=500, theta=0, phi=4.7124,pabe.Ix (W/m^2) @ freq=1000, theta=0, phi=4.7124,pabe.Iy (W/m^2) @ freq=1000, theta=0, phi=4.7124,pabe.Iz (W/m^2) @ freq=1000, theta=0, phi=4.7124,pabe.Ix (W/m^2) @ freq=100, theta=1.5708, phi=0,pabe.Iy (W/m^2) @ freq=100, theta=1.5708, phi=0,pabe.Iz (W/m^2) @ freq=100, theta=1.5708, phi=0,pabe.Ix (W/m^2) @ freq=500, theta=1.5708, phi=0,pabe.Iy (W/m^2) @ freq=500, theta=1.5708, phi=0,pabe.Iz (W/m^2) @ freq=500, theta=1.5708, phi=0,pabe.Ix (W/m^2) @ freq=1000, theta=1.5708, phi=0,pabe.Iy (W/m^2) @ freq=1000, theta=1.5708, phi=0,pabe.Iz (W/m^2) @ freq=1000, theta=1.5708, phi=0,pabe.Ix (W/m^2) @ freq=100, theta=1.5708, phi=1.5708,pabe.Iy (W/m^2) @ freq=100, theta=1.5708, phi=1.5708,pabe.Iz (W/m^2) @ freq=100, theta=1.5708, phi=1.5708,pabe.Ix (W/m^2) @ freq=500, theta=1.5708, phi=1.5708,pabe.Iy (W/m^2) @ freq=500, theta=1.5708, phi=1.5708,pabe.Iz (W/m^2) @ freq=500, theta=1.5708, phi=1.5708,pabe.Ix (W/m^2) @ freq=1000, theta=1.5708, phi=1.5708,pabe.Iy (W/m^2) @ freq=1000, theta=1.5708, phi=1.5708,pabe.Iz (W/m^2) @ freq=1000, theta=1.5708, phi=1.5708,pabe.Ix (W/m^2) @ freq=100, theta=1.5708, phi=3.1416,pabe.Iy (W/m^2) @ freq=100, theta=1.5708, phi=3.1416,pabe.Iz (W/m^2) @ freq=100, theta=1.5708, phi=3.1416,pabe.Ix (W/m^2) @ freq=500, theta=1.5708, phi=3.1416,pabe.Iy (W/m^2) @ freq=500, theta=1.5708, phi=3.1416,pabe.Iz (W/m^2) @ freq=500, theta=1.5708, phi=3.1416,pabe.Ix (W/m^2) @ freq=1000, theta=1.5708, phi=3.1416,pabe.Iy (W/m^2) @ freq=1000, theta=1.5708, phi=3.1416,pabe.Iz (W/m^2) @ freq=1000, theta=1.5708, phi=3.1416,pabe.Ix (W/m^2) @ freq=100, theta=1.5708, phi=4.7124,pabe.Iy (W/m^2) @ freq=100, theta=1.5708, phi=4.7124,pabe.Iz (W/m^2) @ freq=100, theta=1.5708, phi=4.7124,pabe.Ix (W/m^2) @ freq=500, theta=1.5708, phi=4.7124,pabe.Iy (W/m^2) @ freq=500, theta=1.5708, phi=4.7124,pabe.Iz (W/m^2) @ freq=500, theta=1.5708, phi=4.7124,pabe.Ix (W/m^2) @ freq=1000, theta=1.5708, phi=4.7124,pabe.Iy (W/m^2) @ freq=1000, theta=1.5708, phi=4.7124,pabe.Iz (W/m^2) @ freq=1000, theta=1.5708, phi=4.7124,pabe.Ix (W/m^2) @ freq=100, theta=3.1416, phi=0,pabe.Iy (W/m^2) @ freq=100, theta=3.1416, phi=0,pabe.Iz (W/m^2) @ freq=100, theta=3.1416, phi=0,pabe.Ix (W/m^2) @ freq=500, theta=3.1416, phi=0,pabe.Iy (W/m^2) @ freq=500, theta=3.1416, phi=0,pabe.Iz (W/m^2) @ freq=500, theta=3.1416, phi=0,pabe.Ix (W/m^2) @ freq=1000, theta=3.1416, phi=0,pabe.Iy (W/m^2) @ freq=1000, theta=3.1416, phi=0,pabe.Iz (W/m^2) @ freq=1000, theta=3.1416, phi=0,pabe.Ix (W/m^2) @ freq=100, theta=3.1416, phi=1.5708,pabe.Iy (W/m^2) @ freq=100, theta=3.1416, phi=1.5708,pabe.Iz (W/m^2) @ freq=100, theta=3.1416, phi=1.5708,pabe.Ix (W/m^2) @ freq=500, theta=3.1416, phi=1.5708,pabe.Iy (W/m^2) @ freq=500, theta=3.1416, phi=1.5708,pabe.Iz (W/m^2) @ freq=500, theta=3.1416, phi=1.5708,pabe.Ix (W/m^2) @ freq=1000, theta=3.1416, phi=1.5708,pabe.Iy (W/m^2) @ freq=1000, theta=3.1416, phi=1.5708,pabe.Iz (W/m^2) @ freq=1000, theta=3.1416, phi=1.5708,pabe.Ix (W/m^2) @ freq=100, theta=3.1416, phi=3.1416,pabe.Iy (W/m^2) @ freq=100, theta=3.1416, phi=3.1416,pabe.Iz (W/m^2) @ freq=100, theta=3.1416, phi=3.1416,pabe.Ix (W/m^2) @ freq=500, theta=3.1416, phi=3.1416,pabe.Iy (W/m^2) @ freq=500, theta=3.1416, phi=3.1416,pabe.Iz (W/m^2) @ freq=500, theta=3.1416, phi=3.1416,pabe.Ix (W/m^2) @ freq=1000, theta=3.1416, phi=3.1416,pabe.Iy (W/m^2) @ freq=1000, theta=3.1416, phi=3.1416,pabe.Iz (W/m^2) @ freq=1000, theta=3.1416, phi=3.1416,pabe.Ix (W/m^2) @ freq=100, theta=3.1416, phi=4.7124,pabe.Iy (W/m^2) @ freq=100, theta=3.1416, phi=4.7124,pabe.Iz (W/m^2) @ freq=100, theta=3.1416, phi=4.7124,pabe.Ix (W/m^2) @ freq=500, theta=3.1416, phi=4.7124,pabe.Iy (W/m^2) @ freq=500, theta=3.1416, phi=4.7124,pabe.Iz (W/m^2) @ freq=500, theta=3.1416, phi=4.7124,pabe.Ix (W/m^2) @ freq=1000, theta=3.1416, phi=4.7124,pabe.Iy (W/m^2) @ freq=1000, theta=3.1416, phi=4.7124,pabe.Iz (W/m^2) @ freq=1000, theta=3.1416, phi=4.7124
1.2867253973047096E-24,1.838179139006728E-24,4.1359030627651384E-25,-2.757268708510092E-25,1.378634354255046E-25,-1.838179139006728E-25,-3.676358278013456E-25,-3.676358278013456E-25,0,1.2867253973047096E-24,1.838179139006728E-24,4.1359030627651384E-25,-2.757268708510092E-25,1.378634354255046E-25,-1.838179139006728E-25,-3.676358278013456E-25,-3.676358278013456E-25,0,1.2867253973047096E-24,1.838179139006728E-24,4.1359030627651384E-25,-2.757268708510092E-25,1.378634354255046E-25,-1.838179139006728E-25,-3.676358278013456E-25,-3.676358278013456E-25,0,1.2867253973047096E-24,1.838179139006728E-24,4.1359030627651384E-25,-2.757268708510092E-25,1.378634354255046E-25,-1.838179139006728E-25,-3.676358278013456E-25,-3.676358278013456E-25,0,-2.757268708510092E-25,-2.757268708510092E-25,-2.757268708510092E-25,-2.757268708510092E-25,0,0,-3.216813493261774E-25,1.838179139006728E-25,1.378634354255046E-25,2.941086622410765E-24,-3.676358278013456E-25,1.9300880959570647E-24,9.19089569503364E-26,2.757268708510092E-25,0,1.1029074834040368E-24,4.59544784751682E-26,-2.757268708510092E-25,-3.676358278013456E-25,2.941086622410765E-24,2.0679515313825692E-24,2.757268708510092E-25,1.378634354255046E-25,0,1.378634354255046E-25,1.1029074834040368E-24,-6.893171771275231E-25,-3.0329955793611014E-24,-3.216813493261774E-25,3.676358278013456E-25,0,2.757268708510092E-25,0,-3.676358278013456E-25,-4.59544784751682E-26,-8.271806125530277E-25,-9.19089569503364E-26,-9.19089569503364E-26,-3.676358278013456E-25,-3.216813493261774E-25,4.59544784751682E-26,4.59544784751682E-26,-1.0569530049288686E-24,4.1359030627651384E-25,-3.216813493261774E-25,1.2867253973047096E-24,1.838179139006728E-24,4.1359030627651384E-25,-3.216813493261774E-25,-2.757268708510092E-25,-1.838179139006728E-25,-3.676358278013456E-25,-3.676358278013456E-25,-2.29772392375841E-25,-6.433626986523548E-25,-3.676358278013456E-25,9.19089569503364E-26,4.59544784751682E-25,9.19089569503364E-25,0,-3.676358278013456E-25,-3.676358278013456E-25,4.59544784751682E-26,3.216813493261774E-25,-1.838179139006728E-25,1.838179139006728E-25,9.19089569503364E-26,2.29772392375841E-25,0,-9.19089569503364E-26,-4.59544784751682E-25,4.1359030627651384E-25
