% Model:              pyfar_example_model_actd.mph
% Version:            COMSOL 6.0.0.405
% Date:               Aug 31 2022, 08:20
% Dimension:          3
% Nodes:              8
% Expressions:        9
% Description:        Intensity, x component, Intensity, y component, Intensity, z component
% Length unit:        m
% x                       y                        z                        pabe.Ix (W/m^2) @ freq=100 pabe.Iy (W/m^2) @ freq=100 pabe.Iz (W/m^2) @ freq=100 pabe.Ix (W/m^2) @ freq=500 pabe.Iy (W/m^2) @ freq=500 pabe.Iz (W/m^2) @ freq=500 pabe.Ix (W/m^2) @ freq=1000 pabe.Iy (W/m^2) @ freq=1000 pabe.Iz (W/m^2) @ freq=1000
-0.5                      -0.5                     -0.5                     -1.0535540378988276E-8   -1.0535540378988276E-8   -1.053589157768234E-8    -1.053610722721849E-8    -1.053610722721849E-8    -1.053645842736477E-8    -1.0537877844784442E-8   -1.0537877844784442E-8   -1.0538229049340187E-8
0.5                       -0.5                     -0.5                     1.0535540378988277E-8    -1.0535540378988277E-8   -1.0535891577682342E-8   1.053610722721849E-8     -1.0536107227218492E-8   -1.0536458427364772E-8   1.053787784478444E-8     -1.0537877844784442E-8   -1.0538229049340184E-8
-0.5                      0.5                      -0.5                     -1.0535540378988276E-8   1.0535540378988276E-8    -1.0535891577682342E-8   -1.053610722721849E-8    1.053610722721849E-8     -1.0536458427364772E-8   -1.0537877844784442E-8   1.053787784478444E-8     -1.0538229049340184E-8
0.5                       0.5                      -0.5                     1.0535540378988276E-8    1.0535540378988276E-8    -1.0535891577682342E-8   1.053610722721849E-8     1.0536107227218492E-8    -1.0536458427364772E-8   1.0537877844784444E-8    1.0537877844784444E-8    -1.0538229049340185E-8
-0.5                      -0.5                     0.5                      -1.0535540378988276E-8   -1.0535540378988276E-8   1.053589157768234E-8     -1.053610722721849E-8    -1.053610722721849E-8    1.053645842736477E-8     -1.0537877844784442E-8   -1.0537877844784442E-8   1.0538229049340187E-8
0.5                       -0.5                     0.5                      1.0535540378988277E-8    -1.0535540378988277E-8   1.0535891577682342E-8    1.053610722721849E-8     -1.0536107227218492E-8   1.0536458427364772E-8    1.053787784478444E-8     -1.0537877844784442E-8   1.0538229049340184E-8
-0.5                      0.5                      0.5                      -1.0535540378988276E-8   1.0535540378988276E-8    1.0535891577682342E-8    -1.053610722721849E-8    1.053610722721849E-8     1.0536458427364772E-8    -1.0537877844784442E-8   1.053787784478444E-8     1.0538229049340184E-8
0.5                       0.5                      0.5                      1.0535540378988276E-8    1.0535540378988276E-8    1.0535891577682342E-8    1.053610722721849E-8     1.0536107227218492E-8    1.0536458427364772E-8    1.0537877844784444E-8    1.0537877844784444E-8    1.0538229049340185E-8
