% Model:              pyfar_example_model_actd.mph
% Version:            COMSOL 6.0.0.405
% Date:               Aug 31 2022, 08:20
% Dimension:          3
% Nodes:              8
% Expressions:        3
% Description:        Total sound pressure level
% Length unit:        m
% x,y,z,pabe.Lp_t (dB) @ freq=100,pabe.Lp_t (dB) @ freq=500,pabe.Lp_t (dB) @ freq=1000
-0.5,-0.5,-0.5,42.754551872360125,42.75478553021174,42.75551530721546
0.5,-0.5,-0.5,42.754551872360125,42.75478553021174,42.75551530721546
-0.5,0.5,-0.5,42.754551872360125,42.75478553021174,42.75551530721546
0.5,0.5,-0.5,42.754551872360125,42.75478553021174,42.75551530721546
-0.5,-0.5,0.5,42.754551872360125,42.75478553021174,42.75551530721546
0.5,-0.5,0.5,42.754551872360125,42.75478553021174,42.75551530721546
-0.5,0.5,0.5,42.754551872360125,42.75478553021174,42.75551530721546
0.5,0.5,0.5,42.754551872360125,42.75478553021174,42.75551530721546
