% Model:              reflections_water_sediment.mph
% Version:            COMSOL 6.0.0.354
% Date:               Aug 8 2022, 15:59
% Dimension:          2
% Nodes:              6
% Expressions:        3
% Description:        Total acoustic pressure
% Length unit:        m
% X,Y,pelw.p_t (Pa) @ 1: freq=10000 Hz, theta0=0 deg,pelw.p_t (Pa) @ 2: freq=20000 Hz, theta0=0 deg,pelw.p_t (Pa) @ 3: freq=30000 Hz, theta0=0 deg
0,-0.2828,0,0,0
0.002570909090907349,-0.2828,0,0,0
0,-0.28122888888888886,-6.953305278325256E-4-9.531330752119391E-4i,-4.947895366049597E-4-0.0010947232249323765i,2.531362781941304E-4-0.001249339515220123i
0.002570909090907407,-0.28122888888888886,-6.953305278325315E-4-9.53133075212019E-4i,-5.164073543280787E-4-0.0010846930760063452i,2.0414094216081964E-4-0.0012582740859455911i
0,-0.2796577777777778,-0.0013080002355518082-0.001968566692604703i,-8.948685194633541E-4-0.002234002291510329i,6.129120049767814E-4-0.0024787161312815726i
0.002570909090907465,-0.2796577777777777,-0.0013080002355517948-0.001968566692604805i,-9.390066093835291E-4-0.0022158119263904603i,5.1561974077091E-4-0.002500766096268813i
