% Model:              reflections_water_sediment.mph
% Version:            COMSOL 6.0.0.354
% Date:               Aug 8 2022, 15:59
% Dimension:          2
% Nodes:              1
% Expressions:        3
% Description:        Total acoustic pressure
% Length unit:        m
% X,Y,pelw.p_t (Pa) @ 1: freq=10000 Hz, theta0=10 deg,pelw.p_t (Pa) @ 2: freq=20000 Hz, theta0=10 deg,pelw.p_t (Pa) @ 3: freq=30000 Hz, theta0=10 deg
0,-0.2828,0,0,0
