% Model:              reflections_water_sediment.mph
% Version:            COMSOL 6.0.0.354
% Date:               Aug 8 2022, 15:59
% Dimension:          2
% Nodes:              6
% Expressions:        1
% Description:        Total acoustic pressure
% Length unit:        m
% X,Y,pelw.p_t (Pa) @ 1: freq=10000 Hz, theta0=10 deg
0,-0.2828,0
0.002570909090907349,-0.2828,0
0,-0.28122888888888886,-6.953305278325256E-4-9.531330752119391E-4i
0.002570909090907407,-0.28122888888888886,-6.953305278325315E-4-9.53133075212019E-4i
0,-0.2796577777777778,-0.0013080002355518082-0.001968566692604703i
0.002570909090907465,-0.2796577777777777,-0.0013080002355517948-0.001968566692604805i
