% Model:              nonlinear_cylindrical_wave.mph
% Version:            COMSOL 6.0.0.354
% Date:               Aug 8 2022, 16:28
% Dimension:          1
% Nodes:              6
% Expressions:        3
% Description:        Total acoustic pressure
% Length unit:        null
% x,nate.p_t @ t=0,nate.p_t @ t=0.02,nate.p_t @ t=0.04
2,-2.5386808201539777E-99,9.703158054915826E-88,-1.2642304946446727E-80
3,-2.1935626606722855E-75,-9.918323053122758E-72,8.870312091701405E-67
4,4.959950796395267E-63,1.0255583423241139E-59,9.621041149978944E-57
5,5.500620600180097E-54,2.045012724219628E-51,5.573172106169438E-49
6,1.035951641185618E-46,1.2442552914842004E-44,7.677346141867391E-43
7,-1.7517072584831806E-41,-7.062885951470539E-39,-4.704266787785037E-37
