% Model:              nonlinear_cylindrical_wave.mph
% Version:            COMSOL 6.0.0.354
% Date:               Aug 8 2022, 16:28
% Dimension:          2
% Nodes:              1
% Expressions:        3
% Description:        Total acoustic pressure
% Length unit:        null
% x,y,nate.p_t @ t=0,nate.p_t @ t=0.02,nate.p_t @ t=0.04
2,0,-2.5386808201539777E-99,9.703158054915826E-88,-1.2642304946446727E-80
