% Model:              nonlinear_cylindrical_wave.mph
% Version:            COMSOL 6.0.0.354
% Date:               Aug 8 2022, 16:28
% Dimension:          2
% Nodes:              1
% Expressions:        1
% Description:        Total acoustic pressure
% Length unit:        null
% x,y,nate.p_t @ t=0
2,0,-2.5386808201539777E-99
