% Model:              pyfar_example_model_actd.mph
% Version:            COMSOL 6.0.0.405
% Date:               Aug 31 2022, 08:20
% Dimension:          3
% Nodes:              8
% Expressions:        36
% Description:        Total acoustic pressure
% Length unit:        m
% x,y,z,pabe.p_t (Pa) @ freq=100, theta=0, phi=0,pabe.p_t (Pa) @ freq=500, theta=0, phi=0,pabe.p_t (Pa) @ freq=1000, theta=0, phi=0,pabe.p_t (Pa) @ freq=100, theta=0, phi=1.5708,pabe.p_t (Pa) @ freq=500, theta=0, phi=1.5708,pabe.p_t (Pa) @ freq=1000, theta=0, phi=1.5708,pabe.p_t (Pa) @ freq=100, theta=0, phi=3.1416,pabe.p_t (Pa) @ freq=500, theta=0, phi=3.1416,pabe.p_t (Pa) @ freq=1000, theta=0, phi=3.1416,pabe.p_t (Pa) @ freq=100, theta=0, phi=4.7124,pabe.p_t (Pa) @ freq=500, theta=0, phi=4.7124,pabe.p_t (Pa) @ freq=1000, theta=0, phi=4.7124,pabe.p_t (Pa) @ freq=100, theta=1.5708, phi=0,pabe.p_t (Pa) @ freq=500, theta=1.5708, phi=0,pabe.p_t (Pa) @ freq=1000, theta=1.5708, phi=0,pabe.p_t (Pa) @ freq=100, theta=1.5708, phi=1.5708,pabe.p_t (Pa) @ freq=500, theta=1.5708, phi=1.5708,pabe.p_t (Pa) @ freq=1000, theta=1.5708, phi=1.5708,pabe.p_t (Pa) @ freq=100, theta=1.5708, phi=3.1416,pabe.p_t (Pa) @ freq=500, theta=1.5708, phi=3.1416,pabe.p_t (Pa) @ freq=1000, theta=1.5708, phi=3.1416,pabe.p_t (Pa) @ freq=100, theta=1.5708, phi=4.7124,pabe.p_t (Pa) @ freq=500, theta=1.5708, phi=4.7124,pabe.p_t (Pa) @ freq=1000, theta=1.5708, phi=4.7124,pabe.p_t (Pa) @ freq=100, theta=3.1416, phi=0,pabe.p_t (Pa) @ freq=500, theta=3.1416, phi=0,pabe.p_t (Pa) @ freq=1000, theta=3.1416, phi=0,pabe.p_t (Pa) @ freq=100, theta=3.1416, phi=1.5708,pabe.p_t (Pa) @ freq=500, theta=3.1416, phi=1.5708,pabe.p_t (Pa) @ freq=1000, theta=3.1416, phi=1.5708,pabe.p_t (Pa) @ freq=100, theta=3.1416, phi=3.1416,pabe.p_t (Pa) @ freq=500, theta=3.1416, phi=3.1416,pabe.p_t (Pa) @ freq=1000, theta=3.1416, phi=3.1416,pabe.p_t (Pa) @ freq=100, theta=3.1416, phi=4.7124,pabe.p_t (Pa) @ freq=500, theta=3.1416, phi=4.7124,pabe.p_t (Pa) @ freq=1000, theta=3.1416, phi=4.7124
-0.5,-0.5,-0.5,-3.3084890576658145E-5-0.003883799752478905i,-1.6538625832430062E-4-0.0038805224046824325i,-0.0038702828550019564+3.305337534579954E-4i,-3.3084890576658145E-5-0.003883799752478905i,-1.6538625832430062E-4-0.0038805224046824325i,-0.0038702828550019564+3.305337534579954E-4i,-3.3084890576658145E-5-0.003883799752478905i,-1.6538625832430062E-4-0.0038805224046824325i,-0.0038702828550019564+3.305337534579954E-4i,-3.3084890576658145E-5-0.003883799752478905i,-1.6538625832430062E-4-0.0038805224046824325i,-0.0038702828550019564+3.305337534579954E-4i,-3.3084890576658064E-5-0.003883799752478904i,-1.6538625832429973E-4-0.0038805224046824325i,-0.0038702828550019578+3.3053375345799374E-4i,-3.308489057665793E-5-0.003883799752478905i,-1.6538625832429975E-4-0.0038805224046824325i,-0.003870282855001957+3.3053375345799374E-4i,-3.308489057665793E-5-0.003883799752478905i,-1.6538625832429975E-4-0.0038805224046824325i,-0.003870282855001957+3.3053375345799374E-4i,-3.308489057665804E-5-0.003883799752478905i,-1.6538625832429978E-4-0.0038805224046824325i,-0.0038702828550019578+3.305337534579937E-4i,-3.308489057665826E-5-0.003883799752478905i,-1.6538625832430065E-4-0.0038805224046824325i,-0.0038702828550019573+3.305337534579954E-4i,-3.3084890576658145E-5-0.003883799752478905i,-1.6538625832430062E-4-0.0038805224046824325i,-0.0038702828550019564+3.305337534579954E-4i,-3.3084890576658186E-5-0.0038837997524789054i,-1.6538625832430057E-4-0.0038805224046824316i,-0.0038702828550019564+3.305337534579953E-4i,-3.308489057665816E-5-0.003883799752478906i,-1.653862583243006E-4-0.0038805224046824316i,-0.0038702828550019573+3.3053375345799536E-4i
0.5,-0.5,-0.5,-3.308489057665815E-5-0.003883799752478905i,-1.6538625832430062E-4-0.0038805224046824325i,-0.003870282855001957+3.3053375345799526E-4i,-3.308489057665815E-5-0.003883799752478905i,-1.6538625832430062E-4-0.0038805224046824325i,-0.003870282855001957+3.3053375345799526E-4i,-3.308489057665815E-5-0.003883799752478905i,-1.6538625832430062E-4-0.0038805224046824325i,-0.003870282855001957+3.3053375345799526E-4i,-3.308489057665815E-5-0.003883799752478905i,-1.6538625832430062E-4-0.0038805224046824325i,-0.003870282855001957+3.3053375345799526E-4i,-3.3084890576658064E-5-0.003883799752478904i,-1.6538625832429973E-4-0.0038805224046824325i,-0.0038702828550019578+3.3053375345799374E-4i,-3.308489057665795E-5-0.003883799752478905i,-1.6538625832429973E-4-0.0038805224046824325i,-0.0038702828550019573+3.3053375345799363E-4i,-3.308489057665793E-5-0.003883799752478905i,-1.6538625832429975E-4-0.0038805224046824325i,-0.003870282855001957+3.3053375345799374E-4i,-3.308489057665804E-5-0.003883799752478905i,-1.6538625832429973E-4-0.003880522404682433i,-0.0038702828550019573+3.3053375345799374E-4i,-3.308489057665827E-5-0.003883799752478905i,-1.6538625832430065E-4-0.0038805224046824325i,-0.0038702828550019564+3.3053375345799536E-4i,-3.3084890576658165E-5-0.003883799752478905i,-1.6538625832430062E-4-0.0038805224046824325i,-0.003870282855001957+3.3053375345799536E-4i,-3.308489057665819E-5-0.0038837997524789054i,-1.653862583243006E-4-0.003880522404682432i,-0.0038702828550019564+3.305337534579953E-4i,-3.3084890576658165E-5-0.0038837997524789063i,-1.653862583243006E-4-0.003880522404682432i,-0.003870282855001957+3.3053375345799547E-4i
-0.5,0.5,-0.5,-3.3084890576658165E-5-0.003883799752478905i,-1.6538625832430062E-4-0.0038805224046824325i,-0.003870282855001957+3.3053375345799536E-4i,-3.3084890576658165E-5-0.003883799752478905i,-1.6538625832430062E-4-0.0038805224046824325i,-0.003870282855001957+3.3053375345799536E-4i,-3.3084890576658165E-5-0.003883799752478905i,-1.6538625832430062E-4-0.0038805224046824325i,-0.003870282855001957+3.3053375345799536E-4i,-3.3084890576658165E-5-0.003883799752478905i,-1.6538625832430062E-4-0.0038805224046824325i,-0.003870282855001957+3.3053375345799536E-4i,-3.3084890576658064E-5-0.003883799752478904i,-1.6538625832429973E-4-0.0038805224046824325i,-0.0038702828550019578+3.3053375345799363E-4i,-3.308489057665793E-5-0.003883799752478905i,-1.6538625832429975E-4-0.0038805224046824325i,-0.003870282855001957+3.3053375345799374E-4i,-3.308489057665795E-5-0.003883799752478905i,-1.6538625832429973E-4-0.0038805224046824325i,-0.0038702828550019573+3.3053375345799363E-4i,-3.308489057665804E-5-0.003883799752478905i,-1.6538625832429978E-4-0.0038805224046824325i,-0.0038702828550019578+3.305337534579937E-4i,-3.308489057665826E-5-0.003883799752478905i,-1.653862583243006E-4-0.003880522404682433i,-0.0038702828550019573+3.3053375345799536E-4i,-3.308489057665815E-5-0.003883799752478905i,-1.6538625832430062E-4-0.0038805224046824325i,-0.003870282855001957+3.3053375345799526E-4i,-3.308489057665819E-5-0.0038837997524789054i,-1.653862583243006E-4-0.003880522404682432i,-0.0038702828550019564+3.305337534579952E-4i,-3.3084890576658165E-5-0.0038837997524789063i,-1.653862583243006E-4-0.003880522404682432i,-0.003870282855001957+3.3053375345799526E-4i
0.5,0.5,-0.5,-3.3084890576658165E-5-0.003883799752478905i,-1.653862583243006E-4-0.0038805224046824325i,-0.0038702828550019564+3.3053375345799526E-4i,-3.3084890576658165E-5-0.003883799752478905i,-1.653862583243006E-4-0.0038805224046824325i,-0.0038702828550019564+3.3053375345799526E-4i,-3.3084890576658165E-5-0.003883799752478905i,-1.653862583243006E-4-0.0038805224046824325i,-0.0038702828550019564+3.3053375345799526E-4i,-3.3084890576658165E-5-0.003883799752478905i,-1.653862583243006E-4-0.0038805224046824325i,-0.0038702828550019564+3.3053375345799526E-4i,-3.3084890576658064E-5-0.003883799752478904i,-1.6538625832429973E-4-0.0038805224046824325i,-0.0038702828550019578+3.3053375345799363E-4i,-3.308489057665795E-5-0.003883799752478905i,-1.6538625832429973E-4-0.0038805224046824325i,-0.0038702828550019573+3.3053375345799363E-4i,-3.308489057665795E-5-0.003883799752478905i,-1.6538625832429973E-4-0.0038805224046824325i,-0.0038702828550019573+3.3053375345799363E-4i,-3.308489057665804E-5-0.003883799752478905i,-1.6538625832429973E-4-0.003880522404682433i,-0.0038702828550019573+3.3053375345799374E-4i,-3.3084890576658274E-5-0.003883799752478905i,-1.653862583243006E-4-0.0038805224046824325i,-0.0038702828550019573+3.3053375345799536E-4i,-3.3084890576658165E-5-0.003883799752478905i,-1.653862583243006E-4-0.0038805224046824325i,-0.0038702828550019564+3.3053375345799526E-4i,-3.3084890576658206E-5-0.0038837997524789054i,-1.653862583243006E-4-0.003880522404682432i,-0.003870282855001957+3.3053375345799515E-4i,-3.3084890576658165E-5-0.003883799752478906i,-1.653862583243006E-4-0.003880522404682432i,-0.0038702828550019573+3.3053375345799526E-4i
-0.5,-0.5,0.5,-3.3084890576658145E-5-0.003883799752478905i,-1.6538625832430062E-4-0.0038805224046824325i,-0.0038702828550019564+3.305337534579954E-4i,-3.3084890576658145E-5-0.003883799752478905i,-1.6538625832430062E-4-0.0038805224046824325i,-0.0038702828550019564+3.305337534579954E-4i,-3.3084890576658145E-5-0.003883799752478905i,-1.6538625832430062E-4-0.0038805224046824325i,-0.0038702828550019564+3.305337534579954E-4i,-3.3084890576658145E-5-0.003883799752478905i,-1.6538625832430062E-4-0.0038805224046824325i,-0.0038702828550019564+3.305337534579954E-4i,-3.3084890576658084E-5-0.003883799752478904i,-1.653862583242997E-4-0.0038805224046824325i,-0.0038702828550019578+3.305337534579937E-4i,-3.308489057665794E-5-0.003883799752478905i,-1.6538625832429975E-4-0.003880522404682433i,-0.003870282855001957+3.3053375345799363E-4i,-3.308489057665794E-5-0.003883799752478905i,-1.6538625832429975E-4-0.003880522404682433i,-0.003870282855001957+3.3053375345799363E-4i,-3.308489057665806E-5-0.003883799752478905i,-1.6538625832429978E-4-0.0038805224046824325i,-0.0038702828550019573+3.3053375345799363E-4i,-3.308489057665826E-5-0.003883799752478905i,-1.6538625832430065E-4-0.0038805224046824325i,-0.0038702828550019573+3.305337534579954E-4i,-3.3084890576658145E-5-0.003883799752478905i,-1.6538625832430062E-4-0.0038805224046824325i,-0.0038702828550019564+3.305337534579954E-4i,-3.3084890576658186E-5-0.0038837997524789054i,-1.6538625832430057E-4-0.0038805224046824316i,-0.0038702828550019564+3.305337534579953E-4i,-3.308489057665816E-5-0.003883799752478906i,-1.653862583243006E-4-0.0038805224046824316i,-0.0038702828550019573+3.3053375345799536E-4i
0.5,-0.5,0.5,-3.308489057665815E-5-0.003883799752478905i,-1.6538625832430062E-4-0.0038805224046824325i,-0.003870282855001957+3.3053375345799526E-4i,-3.308489057665815E-5-0.003883799752478905i,-1.6538625832430062E-4-0.0038805224046824325i,-0.003870282855001957+3.3053375345799526E-4i,-3.308489057665815E-5-0.003883799752478905i,-1.6538625832430062E-4-0.0038805224046824325i,-0.003870282855001957+3.3053375345799526E-4i,-3.308489057665815E-5-0.003883799752478905i,-1.6538625832430062E-4-0.0038805224046824325i,-0.003870282855001957+3.3053375345799526E-4i,-3.3084890576658084E-5-0.003883799752478904i,-1.653862583242997E-4-0.0038805224046824325i,-0.0038702828550019578+3.305337534579937E-4i,-3.308489057665795E-5-0.003883799752478905i,-1.6538625832429973E-4-0.0038805224046824325i,-0.0038702828550019573+3.305337534579935E-4i,-3.308489057665794E-5-0.003883799752478905i,-1.6538625832429975E-4-0.003880522404682433i,-0.003870282855001957+3.3053375345799363E-4i,-3.308489057665806E-5-0.003883799752478905i,-1.6538625832429973E-4-0.003880522404682433i,-0.0038702828550019573+3.3053375345799363E-4i,-3.308489057665827E-5-0.003883799752478905i,-1.6538625832430065E-4-0.0038805224046824325i,-0.0038702828550019564+3.3053375345799536E-4i,-3.3084890576658165E-5-0.003883799752478905i,-1.6538625832430062E-4-0.0038805224046824325i,-0.003870282855001957+3.3053375345799536E-4i,-3.308489057665819E-5-0.0038837997524789054i,-1.653862583243006E-4-0.003880522404682432i,-0.0038702828550019564+3.305337534579953E-4i,-3.3084890576658165E-5-0.0038837997524789063i,-1.653862583243006E-4-0.003880522404682432i,-0.003870282855001957+3.3053375345799547E-4i
-0.5,0.5,0.5,-3.3084890576658165E-5-0.003883799752478905i,-1.6538625832430062E-4-0.0038805224046824325i,-0.003870282855001957+3.3053375345799536E-4i,-3.3084890576658165E-5-0.003883799752478905i,-1.6538625832430062E-4-0.0038805224046824325i,-0.003870282855001957+3.3053375345799536E-4i,-3.3084890576658165E-5-0.003883799752478905i,-1.6538625832430062E-4-0.0038805224046824325i,-0.003870282855001957+3.3053375345799536E-4i,-3.3084890576658165E-5-0.003883799752478905i,-1.6538625832430062E-4-0.0038805224046824325i,-0.003870282855001957+3.3053375345799536E-4i,-3.3084890576658084E-5-0.003883799752478904i,-1.6538625832429973E-4-0.0038805224046824325i,-0.0038702828550019573+3.3053375345799363E-4i,-3.308489057665794E-5-0.003883799752478905i,-1.6538625832429975E-4-0.003880522404682433i,-0.003870282855001957+3.3053375345799363E-4i,-3.308489057665795E-5-0.003883799752478905i,-1.6538625832429973E-4-0.0038805224046824325i,-0.0038702828550019573+3.305337534579935E-4i,-3.308489057665806E-5-0.003883799752478905i,-1.6538625832429978E-4-0.0038805224046824325i,-0.0038702828550019573+3.3053375345799363E-4i,-3.308489057665826E-5-0.003883799752478905i,-1.653862583243006E-4-0.003880522404682433i,-0.0038702828550019573+3.3053375345799536E-4i,-3.308489057665815E-5-0.003883799752478905i,-1.6538625832430062E-4-0.0038805224046824325i,-0.003870282855001957+3.3053375345799526E-4i,-3.308489057665819E-5-0.0038837997524789054i,-1.653862583243006E-4-0.003880522404682432i,-0.0038702828550019564+3.305337534579952E-4i,-3.3084890576658165E-5-0.0038837997524789063i,-1.653862583243006E-4-0.003880522404682432i,-0.003870282855001957+3.3053375345799526E-4i
0.5,0.5,0.5,-3.3084890576658165E-5-0.003883799752478905i,-1.653862583243006E-4-0.0038805224046824325i,-0.0038702828550019564+3.3053375345799526E-4i,-3.3084890576658165E-5-0.003883799752478905i,-1.653862583243006E-4-0.0038805224046824325i,-0.0038702828550019564+3.3053375345799526E-4i,-3.3084890576658165E-5-0.003883799752478905i,-1.653862583243006E-4-0.0038805224046824325i,-0.0038702828550019564+3.3053375345799526E-4i,-3.3084890576658165E-5-0.003883799752478905i,-1.653862583243006E-4-0.0038805224046824325i,-0.0038702828550019564+3.3053375345799526E-4i,-3.3084890576658084E-5-0.003883799752478904i,-1.6538625832429973E-4-0.0038805224046824325i,-0.0038702828550019573+3.3053375345799363E-4i,-3.308489057665795E-5-0.003883799752478905i,-1.6538625832429973E-4-0.0038805224046824325i,-0.0038702828550019573+3.305337534579935E-4i,-3.308489057665795E-5-0.003883799752478905i,-1.6538625832429973E-4-0.0038805224046824325i,-0.0038702828550019573+3.305337534579935E-4i,-3.308489057665806E-5-0.003883799752478905i,-1.6538625832429973E-4-0.003880522404682433i,-0.0038702828550019573+3.3053375345799363E-4i,-3.3084890576658274E-5-0.003883799752478905i,-1.653862583243006E-4-0.0038805224046824325i,-0.0038702828550019573+3.3053375345799536E-4i,-3.3084890576658165E-5-0.003883799752478905i,-1.653862583243006E-4-0.0038805224046824325i,-0.0038702828550019564+3.3053375345799526E-4i,-3.3084890576658206E-5-0.0038837997524789054i,-1.653862583243006E-4-0.003880522404682432i,-0.003870282855001957+3.3053375345799515E-4i,-3.3084890576658165E-5-0.003883799752478906i,-1.653862583243006E-4-0.003880522404682432i,-0.0038702828550019573+3.3053375345799526E-4i
