% Model:              pyfar_example_model_actd.mph
% Version:            COMSOL 6.0.0.405
% Date:               Aug 31 2022, 08:38
% Dimension:          3
% Nodes:              46
% Expressions:        88
% Description:        Total acoustic pressure, Instantaneous total acoustic acceleration
% Length unit:        m
% X                       Y                        Z                        actd.p_t (Pa) @ t=0, A0=0.5, f0=50 actd.a_inst (m/s^2) @ t=0, A0=0.5, f0=50 actd.p_t (Pa) @ t=0.01, A0=0.5, f0=50 actd.a_inst (m/s^2) @ t=0.01, A0=0.5, f0=50 actd.p_t (Pa) @ t=0.02, A0=0.5, f0=50 actd.a_inst (m/s^2) @ t=0.02, A0=0.5, f0=50 actd.p_t (Pa) @ t=0.03, A0=0.5, f0=50 actd.a_inst (m/s^2) @ t=0.03, A0=0.5, f0=50 actd.p_t (Pa) @ t=0.04, A0=0.5, f0=50 actd.a_inst (m/s^2) @ t=0.04, A0=0.5, f0=50 actd.p_t (Pa) @ t=0.05, A0=0.5, f0=50 actd.a_inst (m/s^2) @ t=0.05, A0=0.5, f0=50 actd.p_t (Pa) @ t=0.06, A0=0.5, f0=50 actd.a_inst (m/s^2) @ t=0.06, A0=0.5, f0=50 actd.p_t (Pa) @ t=0.07, A0=0.5, f0=50 actd.a_inst (m/s^2) @ t=0.07, A0=0.5, f0=50 actd.p_t (Pa) @ t=0.08, A0=0.5, f0=50 actd.a_inst (m/s^2) @ t=0.08, A0=0.5, f0=50 actd.p_t (Pa) @ t=0.09, A0=0.5, f0=50 actd.a_inst (m/s^2) @ t=0.09, A0=0.5, f0=50 actd.p_t (Pa) @ t=0.1, A0=0.5, f0=50 actd.a_inst (m/s^2) @ t=0.1, A0=0.5, f0=50 actd.p_t (Pa) @ t=0, A0=0.5, f0=100 actd.a_inst (m/s^2) @ t=0, A0=0.5, f0=100 actd.p_t (Pa) @ t=0.01, A0=0.5, f0=100 actd.a_inst (m/s^2) @ t=0.01, A0=0.5, f0=100 actd.p_t (Pa) @ t=0.02, A0=0.5, f0=100 actd.a_inst (m/s^2) @ t=0.02, A0=0.5, f0=100 actd.p_t (Pa) @ t=0.03, A0=0.5, f0=100 actd.a_inst (m/s^2) @ t=0.03, A0=0.5, f0=100 actd.p_t (Pa) @ t=0.04, A0=0.5, f0=100 actd.a_inst (m/s^2) @ t=0.04, A0=0.5, f0=100 actd.p_t (Pa) @ t=0.05, A0=0.5, f0=100 actd.a_inst (m/s^2) @ t=0.05, A0=0.5, f0=100 actd.p_t (Pa) @ t=0.06, A0=0.5, f0=100 actd.a_inst (m/s^2) @ t=0.06, A0=0.5, f0=100 actd.p_t (Pa) @ t=0.07, A0=0.5, f0=100 actd.a_inst (m/s^2) @ t=0.07, A0=0.5, f0=100 actd.p_t (Pa) @ t=0.08, A0=0.5, f0=100 actd.a_inst (m/s^2) @ t=0.08, A0=0.5, f0=100 actd.p_t (Pa) @ t=0.09, A0=0.5, f0=100 actd.a_inst (m/s^2) @ t=0.09, A0=0.5, f0=100 actd.p_t (Pa) @ t=0.1, A0=0.5, f0=100 actd.a_inst (m/s^2) @ t=0.1, A0=0.5, f0=100 actd.p_t (Pa) @ t=0, A0=1, f0=50 actd.a_inst (m/s^2) @ t=0, A0=1, f0=50 actd.p_t (Pa) @ t=0.01, A0=1, f0=50 actd.a_inst (m/s^2) @ t=0.01, A0=1, f0=50 actd.p_t (Pa) @ t=0.02, A0=1, f0=50 actd.a_inst (m/s^2) @ t=0.02, A0=1, f0=50 actd.p_t (Pa) @ t=0.03, A0=1, f0=50 actd.a_inst (m/s^2) @ t=0.03, A0=1, f0=50 actd.p_t (Pa) @ t=0.04, A0=1, f0=50 actd.a_inst (m/s^2) @ t=0.04, A0=1, f0=50 actd.p_t (Pa) @ t=0.05, A0=1, f0=50 actd.a_inst (m/s^2) @ t=0.05, A0=1, f0=50 actd.p_t (Pa) @ t=0.06, A0=1, f0=50 actd.a_inst (m/s^2) @ t=0.06, A0=1, f0=50 actd.p_t (Pa) @ t=0.07, A0=1, f0=50 actd.a_inst (m/s^2) @ t=0.07, A0=1, f0=50 actd.p_t (Pa) @ t=0.08, A0=1, f0=50 actd.a_inst (m/s^2) @ t=0.08, A0=1, f0=50 actd.p_t (Pa) @ t=0.09, A0=1, f0=50 actd.a_inst (m/s^2) @ t=0.09, A0=1, f0=50 actd.p_t (Pa) @ t=0.1, A0=1, f0=50 actd.a_inst (m/s^2) @ t=0.1, A0=1, f0=50 actd.p_t (Pa) @ t=0, A0=1, f0=100 actd.a_inst (m/s^2) @ t=0, A0=1, f0=100 actd.p_t (Pa) @ t=0.01, A0=1, f0=100 actd.a_inst (m/s^2) @ t=0.01, A0=1, f0=100 actd.p_t (Pa) @ t=0.02, A0=1, f0=100 actd.a_inst (m/s^2) @ t=0.02, A0=1, f0=100 actd.p_t (Pa) @ t=0.03, A0=1, f0=100 actd.a_inst (m/s^2) @ t=0.03, A0=1, f0=100 actd.p_t (Pa) @ t=0.04, A0=1, f0=100 actd.a_inst (m/s^2) @ t=0.04, A0=1, f0=100 actd.p_t (Pa) @ t=0.05, A0=1, f0=100 actd.a_inst (m/s^2) @ t=0.05, A0=1, f0=100 actd.p_t (Pa) @ t=0.06, A0=1, f0=100 actd.a_inst (m/s^2) @ t=0.06, A0=1, f0=100 actd.p_t (Pa) @ t=0.07, A0=1, f0=100 actd.a_inst (m/s^2) @ t=0.07, A0=1, f0=100 actd.p_t (Pa) @ t=0.08, A0=1, f0=100 actd.a_inst (m/s^2) @ t=0.08, A0=1, f0=100 actd.p_t (Pa) @ t=0.09, A0=1, f0=100 actd.a_inst (m/s^2) @ t=0.09, A0=1, f0=100 actd.p_t (Pa) @ t=0.1, A0=1, f0=100 actd.a_inst (m/s^2) @ t=0.1, A0=1, f0=100
-0.3129515181283455       0.008562298305235569     0.3126101357409026       2.2469262686436532E-14   4.885499916891404E-13    330.5700114454193        24.328522987860985       658.0020953527438        24.339186332685472       612.6647837632615        23.795040189500263       547.8504883055703        11.141643030124415       487.09878433338423       15.649192618031925       426.1059234758234        16.644164302685528       372.5536408181461        36.921958950128          309.1982749711211        9.732254232325278        247.40037539911228       6.2209905212891154       192.8993328163639        20.52567888492075        0                        0                        200.03741177017977       0.07906218781895373      400.05487743265644       0.056519994931968374     400.1969582622977        0.1967852928020101       400.02145393885587       0.0885527980808671       400.0452802756702        0.12290559646149674      400.149589383088         0.11856231013939145      400.0809364367152        0.18496694267699101      400.0624164170679        0.1086038829433018       400.04439460553544       0.1910963314140676       400.2132856842261        0.27595131955951946      4.49385253728731E-14     9.770999833782807E-13    661.140022890838         48.657045975726604       1316.0041907054874       48.67837266536386        1225.3295675265176       47.590080378973425       1095.7009766111298       22.283286060232765       974.1975686667791        31.298385236036207       852.2118469516589        33.28832860527641        745.1072816362945        73.84391790021888        618.3965499422313        19.464508464702703       494.80075079823933       12.441981042540615       385.7986656327346        41.051357769867636       0                        0                        400.07482354035994       0.15812437563882542      800.1097548653142        0.11303998985558573      800.3939165245921        0.39357058558419933      800.0429078777107        0.17710559613742852      800.0905605513484        0.24581119291141057      800.2991787661764        0.23712462035550388      800.1618728734447        0.3699338853857477       800.1248328341239        0.21720776587783686      800.0887892110828        0.38219266287344705      800.4265713684459        0.5519026391017068
-0.4999999999999999       4.85722573273506E-17     0.4999999999999999       2.001581386201529E-14    2.9142100099931173E-13   337.32240924372167       46.11371149811129        661.7431525070028        14.27988661225916        610.0777548507749        21.52961214388725        547.9432423310345        13.768817100817623       487.9630135609369        15.828884908472434       427.56572148346817       19.00642003962486        363.1211872436127        31.86350091513822        311.6795569265118        8.692205261711186        248.5878778963669        14.563934898354214       192.2258073439605        13.586015986265222       0                        0                        200.059472495489         0.10930522607989973      400.05012274718734       0.03471083664646444      400.22162697810785       0.14061031192798         400.01748800569425       0.05875848850787818      400.033612292093         0.07615297965752403      400.1717430035083        0.0758110629649535       400.04368623087504       0.1017401631318724       400.0840413929909        0.06224896020114112      400.0039599313748        0.06409316980825869      400.2449916067307        0.04110522052284388      4.003162772403059E-14    5.828420019986236E-13    674.6448184874406        92.22742299621672        1323.4863050140154       28.559773224582745       1220.1555097015555       43.059224287815844       1095.886484662056        27.53763420158421        975.9260271218535        31.657769816897027       855.131442966915         38.01284007933847        726.242374487222         63.727001830411375       623.3591138530286        17.384410523377156       497.17575579275757       29.127869796734586       384.45161468793214       27.17203197251629        0                        0                        400.1189449909782        0.21861045216205136      800.1002454943783        0.0694216733333387       800.4432539562107        0.28122062379918705      800.0349760113842        0.11751697699781487      800.0672245841814        0.15230595933496394      800.3434860070015        0.1516221259706125       800.0873724617533        0.20348032619865464      800.1680827859919        0.12449792048475046      800.007919862748         0.1281863396629568       800.4899832134425        0.08221044110593709
-0.5                      -0.1355828395910199      0.12522027148180512      2.8392339721645833E-14   6.588847165699706E-13    333.4840394010254        24.02533646326918        661.9143908865573        14.732098622475098       608.2935286031798        17.535518956175615       548.4058224188409        6.924123169460105        486.97761991292094       16.05615514683517        428.376217420925         17.80119601807396        365.69264210313173       25.371401032520524       308.67562758269816       11.477069409903807       251.04078974654792       26.525257270138898       189.34803579826237       17.50523507286732        0                        0                        200.04844318556505       0.06789248588951595      400.07809780500014       0.14964636286699076      400.1471844583694        0.24578294337448284      400.05716249324354       0.15104224379388906      400.05543951116806       0.12637432213191305      400.1232264601668        0.23966735791668514      400.0702601201978        0.13296584702539888      400.07265069858937       0.09881414348470363      400.0621890070369        0.24246298957714787      400.1504023502061        0.40313713137140844      5.6784679443291666E-14   1.317769433139941E-12    666.9680788020517        48.05067292653567        1323.8287817731284       29.464197244947155       1216.5870572063648       35.07103791231568        1096.811644837671        13.848246338867673       973.9552398258364        32.1123102936504         856.7524348418234        35.602392036096155       731.3852842062917        50.7428020649117         617.3512551654059        22.95413881970491        502.08157949307673       53.05051454022186        378.69607159652134       35.01047014579574        0                        0                        400.09688637113055       0.13578497178009755      800.1561956099978        0.2992927257332919       800.2943689167349        0.4915658867662507       800.11432498648          0.3020844876438875       800.1108790223358        0.25274864420833293      800.2464529203307        0.4793347158378753       800.1405202403974        0.2659316940269938       800.1453013971824        0.19762828698170962      800.1243780140672        0.4849259791572617       800.3008047004149        0.8062742627598375
-0.5                      -0.5                     0.5                      2.399236189285801E-14    3.1301100799204714E-13   312.86964442194335       52.9298576087825         661.558183284461         14.60226577596906        603.0775276152484        15.715587614044367       565.6345943938928        56.89279033316476        485.654314586471         28.438202668171073       442.4754410713303        36.911254136795286       374.1411587938872        44.56914290712026        314.3486473245617        14.824296682880197       238.69232088453478       36.03869647523661        183.2066731106684        27.22678202346221        0                        0                        200.00082583480614       0.12690337062566706      400.0460728776386        0.06820728600721009      400.15734582195665       0.07986254611615394      400.0638634586958        0.09685615304778146      400.01564733887477       0.1256687040745498       400.2529056591729        0.2723813026230807       400.0755814704764        0.13479281096066184      400.11991791917416       0.10276655634440886      400.0015119584486        0.09008479694911846      400.2277257213081        0.08392917962355541      4.7984723785716035E-14   6.260220159840943E-13    625.7392888438859        105.85971521757254       1323.1163665689244       29.204531551931556       1206.1550552304946       31.43117522810937        1131.269188787753        113.78558066616453       971.308629172955         56.87640533633046        884.9508821426656        73.82250827362725        748.2823175877501        89.13828581413577        628.697294649114         29.648593365720444       477.3846417690448        72.0773929505845         366.4133462213186        54.453564046962036       0                        0                        400.0016516696117        0.25380674125110525      800.0921457552771        0.13641457199209236      800.3146916439122        0.15972509224206075      800.1277269173924        0.19371230609586043      800.0312946777544        0.2513374081811574       800.5058113183194        0.5447626051176514       800.1511629409459        0.2695856218743195       800.2398358383342        0.2055331126617875       800.0030239168913        0.18016959395447665      800.4554514426044        0.1678583592534054
-0.17253124110497894      -0.1725738800073384      0.5                      2.7875017805512246E-14   6.413500923725476E-13    330.3126784786455        19.70916721660111        663.3266833425025        26.091038916142782       607.2294439340275        18.534667887023065       546.9806955339052        16.649555727096406       487.2326906975817        11.802086444172334       428.90736259687185       15.779726250423687       366.4123122857481        15.212735978024206       307.5678266696694        15.202817496240952       249.69226826384738       21.93617081036836        189.98278670339548       19.37401584668209        0                        0                        200.03398584361076       0.04867329174280084      400.0745255651478        0.14515988824477138      400.17187148709394       0.12328674867933444      400.0381893918297        0.07786894883759854      400.0352279602094        0.0676001817157506       400.1493584374767        0.14242531913678858      400.07260236832184       0.12649250053195182      400.0591199982999        0.1628522447852044       400.0475144810849        0.21982830254223407      400.1882067015653        0.2701237148822284       5.575003561102449E-14    1.282700184745095E-12    660.6253569572916        39.41833443319809        1326.6533666850096       52.182077832284676       1214.4588878680645       37.06933577406635        1093.9613910678088       33.299111454177925       974.4653813951626        23.604172888291973       857.814725193728         31.55945250085563        732.8246245715064        30.425471956039303       615.1356533393508        30.405634992363197       499.3845365277024        43.87234162074932        379.9655734068111        38.74803169336475        0                        0                        400.06797168722227       0.09734658348364071      800.1490511302962        0.2903197765134944       800.3437429741942        0.24657349734644607      800.0763787836596        0.1557378976362252       800.0704559204131        0.13520036344558536      800.298716874964         0.28485063832015717      800.1452047366558        0.25298500103065197      800.1182399966136        0.3257044895909591       800.0950289621884        0.4396566050757065       800.3764134031279        0.5402474297367544
-0.20036995884773656      -0.5                     0.20026197472318658      2.5676063802220996E-14   6.136181412289503E-13    330.164995478057         26.037738214846698       663.3022774220617        26.501887855018552       608.6779735416206        10.951203132870964       547.1984354108309        21.87460313451465        489.42662424868263       15.209077659982329       427.34504767557667       26.063702781774637       367.98900910223944       14.847562909246683       307.3763088650594        16.075037653513352       250.4902203643225        19.48774963351358        189.09923657443287       12.088147137716662       0                        0                        200.03727327243698       0.056313622277898316     400.0865998063144        0.08719296072240092      400.13938417600167       0.15882641719366342      400.05994130763526       0.07662356722832561      400.06182925132504       0.06700262083302112      400.11640561245446       0.2654141270565012       400.0857441953959        0.05705942395424565      400.0625480925392        0.10546574139965866      400.0703908630672        0.19555806959950656      400.14196543340955       0.2857932064113492       5.135212760444199E-14    1.2272362824579006E-12   660.3299909561155        52.07547642969158        1326.604554844116        53.00377571002185        1217.3559470832388       21.902406265762373       1094.3968708216612       43.74920626903017        978.8532484973549        30.418155319822304       854.6900953511357        52.12740556355956        735.9780182044552        29.695125818523355       614.7526177301241        32.150075306993834       500.980440728641         38.97549926703515        378.19847314886334       24.176294275340812       0                        0                        400.0745465448736        0.11262724455393093      800.173199612632         0.17438592146140272      800.2787683519964        0.3176528343719317       800.1198826152705        0.15324713447328026      800.1236585026453        0.1340052416379035       800.2328112249004        0.5308282540856117       800.1714883908043        0.11411884793511393      800.1250961850611        0.21093148284158578      800.1407817261369        0.3911161391864569       800.2839308668238        0.5715864128114125
-4.85722573273506E-17     -0.4999999999999999      0.4999999999999999       3.045186661682328E-14    4.887501664809029E-13    332.343437618249         10.506585314647715       657.252126991457         22.594837973264745       610.6611478834902        9.100411935828543        549.2130047045732        8.732427540303597        486.3689806634121        18.93150072465735        423.81625912137577       31.15402615856704        372.6835715987923        38.05603876504249        309.6940922856081        8.48865937128242         246.56739373661048       14.285375301546614       191.4576443267301        15.813661988131152       0                        0                        200.02441050644555       0.07479534704089877      400.0929614593708        0.16703216227317624      400.1485204730433        0.1959543933240455       400.05057731926394       0.11858746267256215      400.0436712676689        0.062375312585096064     400.12535693130695       0.10638692214314042      400.10675901127104       0.12149296841209353      400.02701331883145       0.12900960752434792      400.09112591872275       0.18632117839628595      400.1537754814035        0.22967498798826463      6.090373323364657E-14    9.775003329618059E-13    664.6868752364977        21.0131706292771         1314.5042539829133       45.18967594646003        1221.3222957669645       18.200823871553887       1098.4260094091624       17.46485508071486        972.7379613268204        37.86300144926033        847.6325182427215        62.3080523173207         745.3671431975907        76.11207753008819        619.3881845712175        16.977318742456173       493.13478747323273       28.570750602958995       382.9152886534232        31.627323976154198       0                        0                        400.0488210128902        0.14959069407883788      800.1859229187407        0.3340643245448153       800.2970409460794        0.3919087866486398       800.101154638533         0.23717492531573114      800.0873425353195        0.12475062518081517      800.2507138626048        0.21277384430637442      800.2135180225141        0.2429859367089165       800.0540266376473        0.258019215087872        800.1822518374486        0.3726423568502837       800.3075509628067        0.45934997604521605
-0.4999999999999999       -0.4999999999999999      -4.85722573273506E-17    3.2303070913186584E-14   5.039262639810138E-13    335.4447359753661        33.04636289561717        653.4378763564785        50.61563735540042        610.1697947878412        11.83895468211143        551.1151582546702        20.75940307852389        486.99036058319996       16.046255431122827       424.79413790268535       25.965467121534328       366.7349147537405        13.190480020598226       312.420965592234         26.797826208466198       246.8500057494037        15.648012889405475       190.00941190369844       6.418114493754194        0                        0                        200.04462487815383       0.08010323972960295      400.0922117914153        0.21120499927901998      400.10219800361233       0.32976322878197645      400.0771911721433        0.21700114527699005      400.0719710153851        0.10635163239611811      400.0933373903056        0.20945669369724945      400.08860017123766       0.10369804416531594      400.0583590587539        0.07973397244310207      400.09506755139046       0.21591976959635362      400.1027695154404        0.3955235532607495       6.460614182637316E-14    1.0078525279620274E-12   670.8894719507342        66.09272579124917        1306.8757527129796       101.23127471062156       1220.3395895756857       23.677909364225314       1102.2303165093313       41.51880615698154        973.9807211664222        32.092510862135896       849.5882758053326        51.93093424327717        733.4698295074918        26.380960041039142       624.8419311844546        53.59565241691091        493.7000114988225        31.296025778692112       380.018823807382         12.836228987243278       0                        0                        400.08924975630606       0.16020647944561586      800.1844235828255        0.42240999855446437      800.2043960072253        0.6595264575742981       800.1543823442786        0.4340022905319341       800.1439420307751        0.2127032648410679       800.1866747805955        0.41891338734080397      800.1772003424903        0.20739608826584327      800.1167181175091        0.15946794485808463      800.190135102786         0.43183953917383383      800.2055390308911        0.7910471065158546
-0.5                      0.17266474306364957      0.17261203662402566      2.7272230980244676E-14   6.345552434656199E-13    330.1369768500253        19.445188387767736       663.5638963759446        28.064134874415675       607.0974596636951        18.729820282714915       546.5417134193866        19.322666745830347       487.2375447220468        9.841135832312949        429.04670485058216       17.692545886938532       365.3841275954464        21.742381335080907       307.88103413147377       14.414766047709993       249.89454822582076       22.044831530131226       189.84627587802922       14.681206217157689       0                        0                        200.04240528873467       0.048239084494188504     400.0688258296437        0.1359021009466346       400.16068794993043       0.21024505906400073      400.04464599889485       0.1343422099399851       400.0444804335035        0.11111914407653366      400.1376541815335        0.22837355889058966      400.0634565369955        0.11453654687011555      400.07679406202084       0.09639006012432824      400.04127906359275       0.22258947217531314      400.17827524563614       0.3590420640912605       5.454446196048935E-14    1.2691104869312395E-12   660.2739537000527        38.89037677552895        1327.1277927518809       56.12826974874834        1214.1949193273888       37.45964056540948        1093.0834268387732       38.64533349167403        974.4750894440949        19.682271664634243       858.0934097011597        35.38509177387795        730.7682551908857        43.48476267020629        615.7620682629387        28.829532095457033       499.7890964516448        44.08966306023628        379.6925517560698        29.362412434460953       0                        0                        400.08481057746945       0.09647816898881797      800.1376516592885        0.27180420191706306      800.321375899861         0.4204901181376275       800.089291997792         0.2686844198489431       800.0889608670115        0.2222382881676749       800.2753083630652        0.4567471177914411       800.1269130740068        0.22907309366996695      800.1535881240383        0.192780120304302        800.0825581271857        0.44517894440347905      800.3565504912771        0.7180841281860787
-0.5                      0.5                      0.5                      2.3595179129089794E-14   2.9830854024426395E-13   312.7935238745444        52.707241428595175       661.1404264194939        15.416298008099409       603.7884253461071        18.044564926716507       566.0342309519054        59.95012227918991        486.1048780521001        31.259807110855935       443.07425832919665       39.73410951574832        375.4125053472297        50.274047925093065       313.6833523836023        10.403984135624304       237.88067208024287       41.97017059825           183.5227114515367        27.418447234238666       0                        0                        199.99967320664743       0.12569332954976475      400.03840825037884       0.07526544975779109      400.17564201166846       0.0715235253559589       400.05304837961916       0.08879299947201896      400.0109774765984        0.13814717945669877      400.2670961769561        0.2944777609192308       400.07742825534615       0.14810536059136162      400.1166148609082        0.09939082490266336      399.993456533942         0.09745488708613803      400.2464710226448        0.09503057323807335      4.7190358258179575E-14   5.966170804885278E-13    625.5870477490885        105.41448285718786       1322.2808528389858       30.832596016205972       1207.5768506922277       36.08912985340695        1132.0684619038282       119.90024455845416       972.2097561042082        62.51961422165517        886.1485166583999        79.46821903148948        750.8250106944529        100.5480958501743        627.3667047672253        20.807968271237346       475.7613441604877        83.94034119655102        367.0454229030975        54.83689446836595        0                        0                        399.99934641329406       0.25138665910325925      800.0768165007557        0.15053089950960455      800.3512840233353        0.14304705073211274      800.1060967592392        0.1775859989341175       800.0219549532097        0.2762943589031187       800.5341923539066        0.5889555218378992       800.1548565106967        0.29621072121231484      800.2332297218263        0.19878164983093013      799.986913067889         0.19490977415180932      800.4929420453095        0.19006114648921868
-0.12590303625669094      0.15270743620149105      0.5                      2.8485858625537966E-14   6.586703718312292E-13    333.29535442672466       24.40810003279959        661.373117428309         15.76923375469584        609.0015401770795        17.222010684550856       547.8082085564545        9.628262070734054        486.83239876772046       17.779408669722297       428.94640506028617       19.318446495898446       364.8650884988014        29.556423968896183       308.9994793716779        13.5550788137749         251.30451371240076       26.80092985446071        189.1430201656389        19.57150543715866        0                        0                        200.03439456327897       0.0818185100288792       400.0808300319199        0.1693816339915302       400.17676775416913       0.1566012190200456       400.03683407498517       0.08752289364609674      400.03655230507314       0.07163374912447874      400.1489096979132        0.16345385276328292      400.0761928069116        0.17136334279572596      400.0476574130462        0.2006815943292292       400.0609119250775        0.2555025868210225       400.1815546213334        0.31341837187088145      5.697171725107593E-14    1.317340743662458E-12    666.5907088534461        48.81620006558777        1322.7462348566148       31.538467509352966       1218.003080354163        34.44402136911335        1095.6164171128914       19.256524141466226       973.6647975354485        35.55881733941021        857.8928101205657        38.63689299177826        729.7301769976121        59.112847937750615       617.9989587433491        27.110157627534566       502.60902742478874       53.60185970881485        378.28604033126277       39.14301087429367        0                        0                        400.06878912655833       0.1636370200611085       800.1616600638414        0.33876326800979273      800.3535355083422        0.3132024380414593       800.0736681499658        0.17504578727599332      800.0731046101464        0.14326749827217186      800.2978193958255        0.3269077055609871       800.1523856138282        0.3427266856085123       800.0953148260977        0.4013631886841071       800.1218238501666        0.5110051736457819       800.3631092426716        0.6268367436949599