% Model:              pyfar_example_model_pabe.mph
% Version:            COMSOL 6.0.0.354
% Date:               Sep 1 2022, 14:21
% Dimension:          3
% Nodes:              8
% Expressions:        39
% Description:        Total acoustic pressure
% Length unit:        m
% x                       y                        z                        pabe.p_t (Pa) @ freq=100, theta=0, phi=0          pabe.p_t (Pa) @ freq=500, theta=0, phi=0          pabe.p_t (Pa) @ freq=100, theta=0, phi=1.5708     pabe.p_t (Pa) @ freq=500, theta=0, phi=1.5708     pabe.p_t (Pa) @ freq=100, theta=0, phi=3.1416     pabe.p_t (Pa) @ freq=500, theta=0, phi=3.1416     pabe.p_t (Pa) @ freq=100, theta=0, phi=4.7124     pabe.p_t (Pa) @ freq=500, theta=0, phi=4.7124     pabe.p_t (Pa) @ freq=100, theta=0.7854, phi=0     pabe.p_t (Pa) @ freq=500, theta=0.7854, phi=0     pabe.p_t (Pa) @ freq=100, theta=0.7854, phi=1.5708 pabe.p_t (Pa) @ freq=500, theta=0.7854, phi=1.5708 pabe.p_t (Pa) @ freq=100, theta=0.7854, phi=3.1416 pabe.p_t (Pa) @ freq=500, theta=0.7854, phi=3.1416 pabe.p_t (Pa) @ freq=100, theta=0.7854, phi=4.7124 pabe.p_t (Pa) @ freq=500, theta=0.7854, phi=4.7124 pabe.p_t (Pa) @ freq=100, theta=1.5708, phi=0     pabe.p_t (Pa) @ freq=500, theta=1.5708, phi=0     pabe.p_t (Pa) @ freq=100, theta=1.5708, phi=1.5708 pabe.p_t (Pa) @ freq=500, theta=1.5708, phi=1.5708 pabe.p_t (Pa) @ freq=100, theta=1.5708, phi=3.1416 pabe.p_t (Pa) @ freq=500, theta=1.5708, phi=3.1416 pabe.p_t (Pa) @ freq=100, theta=1.5708, phi=4.7124 pabe.p_t (Pa) @ freq=500, theta=1.5708, phi=4.7124 pabe.p_t (Pa) @ freq=100, theta=2.3562, phi=0     pabe.p_t (Pa) @ freq=500, theta=2.3562, phi=0     pabe.p_t (Pa) @ freq=100, theta=2.3562, phi=1.5708 pabe.p_t (Pa) @ freq=500, theta=2.3562, phi=1.5708 pabe.p_t (Pa) @ freq=100, theta=2.3562, phi=3.1416 pabe.p_t (Pa) @ freq=500, theta=2.3562, phi=3.1416 pabe.p_t (Pa) @ freq=100, theta=2.3562, phi=4.7124 pabe.p_t (Pa) @ freq=500, theta=2.3562, phi=4.7124 pabe.p_t (Pa) @ freq=100, theta=3.1416, phi=0     pabe.p_t (Pa) @ freq=500, theta=3.1416, phi=0     pabe.p_t (Pa) @ freq=100, theta=3.1416, phi=1.5708 pabe.p_t (Pa) @ freq=500, theta=3.1416, phi=1.5708 pabe.p_t (Pa) @ freq=100, theta=3.1416, phi=3.1416 pabe.p_t (Pa) @ freq=500, theta=3.1416, phi=3.1416 pabe.p_t (Pa) @ freq=100, theta=3.1416, phi=4.7124
-0.5                      -0.5                     -0.5                     -3.3084890576658145E-5-0.003883799752478905i      -1.6538625832430062E-4-0.0038805224046824325i     -3.3084890576658145E-5-0.003883799752478905i      -1.6538625832430062E-4-0.0038805224046824325i     -3.3084890576658145E-5-0.003883799752478905i      -1.6538625832430062E-4-0.0038805224046824325i     -3.3084890576658145E-5-0.003883799752478905i      -1.6538625832430062E-4-0.0038805224046824325i     -3.3119070700433795E-5-0.0038837959636363146i     -1.6557549610740738E-4-0.003880945214411704i      -3.3119070700433835E-5-0.0038837959636363155i     -1.6557549610740735E-4-0.003880945214411704i      -3.3050709890598735E-5-0.003883803541318297i      -1.6519703918208651E-4-0.003880099599610891i      -3.305070989059874E-5-0.003883803541318297i       -1.651970391820866E-4-0.003880099599610891i       -3.3084890576658064E-5-0.003883799752478904i      -1.6538625832429973E-4-0.0038805224046824325i     -3.308489057665793E-5-0.003883799752478905i       -1.6538625832429975E-4-0.0038805224046824325i     -3.308489057665793E-5-0.003883799752478905i       -1.6538625832429975E-4-0.0038805224046824325i     -3.308489057665804E-5-0.003883799752478905i       -1.6538625832429978E-4-0.0038805224046824325i     -3.3050709890598674E-5-0.0038838035413182957i     -1.651970391820866E-4-0.0038800995996108915i      -3.305070989059873E-5-0.0038838035413182952i      -1.6519703918208662E-4-0.0038800995996108906i     -3.3119070700433795E-5-0.0038837959636363146i     -1.6557549610740738E-4-0.003880945214411704i      -3.311907070043375E-5-0.0038837959636363155i      -1.6557549610740732E-4-0.003880945214411704i      -3.308489057665826E-5-0.003883799752478905i       -1.6538625832430065E-4-0.0038805224046824325i     -3.3084890576658145E-5-0.003883799752478905i      -1.6538625832430062E-4-0.0038805224046824325i     -3.3084890576658186E-5-0.0038837997524789054i     -1.6538625832430057E-4-0.0038805224046824316i     -3.308489057665816E-5-0.003883799752478906i
0.5                       -0.5                     -0.5                     -3.308489057665815E-5-0.003883799752478905i       -1.6538625832430062E-4-0.0038805224046824325i     -3.308489057665815E-5-0.003883799752478905i       -1.6538625832430062E-4-0.0038805224046824325i     -3.308489057665815E-5-0.003883799752478905i       -1.6538625832430062E-4-0.0038805224046824325i     -3.308489057665815E-5-0.003883799752478905i       -1.6538625832430062E-4-0.0038805224046824325i     -3.305070989059872E-5-0.0038838035413182952i      -1.6519703918208654E-4-0.003880099599610891i      -3.311907070043386E-5-0.0038837959636363164i      -1.655754961074074E-4-0.003880945214411704i       -3.311907070043381E-5-0.0038837959636363164i      -1.6557549610740732E-4-0.0038809452144117043i     -3.3050709890598735E-5-0.0038838035413182965i     -1.6519703918208657E-4-0.003880099599610891i      -3.3084890576658064E-5-0.003883799752478904i      -1.6538625832429973E-4-0.0038805224046824325i     -3.308489057665795E-5-0.003883799752478905i       -1.6538625832429973E-4-0.0038805224046824325i     -3.308489057665793E-5-0.003883799752478905i       -1.6538625832429975E-4-0.0038805224046824325i     -3.308489057665804E-5-0.003883799752478905i       -1.6538625832429973E-4-0.003880522404682433i      -3.311907070043375E-5-0.003883795963636315i       -1.655754961074074E-4-0.0038809452144117048i      -3.305070989059874E-5-0.0038838035413182952i      -1.651970391820866E-4-0.003880099599610891i       -3.3050709890598715E-5-0.0038838035413182957i     -1.6519703918208657E-4-0.003880099599610891i      -3.3119070700433754E-5-0.0038837959636363155i     -1.6557549610740732E-4-0.003880945214411704i      -3.308489057665827E-5-0.003883799752478905i       -1.6538625832430065E-4-0.0038805224046824325i     -3.3084890576658165E-5-0.003883799752478905i      -1.6538625832430062E-4-0.0038805224046824325i     -3.308489057665819E-5-0.0038837997524789054i      -1.653862583243006E-4-0.003880522404682432i       -3.3084890576658165E-5-0.0038837997524789063i
-0.5                      0.5                      -0.5                     -3.3084890576658165E-5-0.003883799752478905i      -1.6538625832430062E-4-0.0038805224046824325i     -3.3084890576658165E-5-0.003883799752478905i      -1.6538625832430062E-4-0.0038805224046824325i     -3.3084890576658165E-5-0.003883799752478905i      -1.6538625832430062E-4-0.0038805224046824325i     -3.3084890576658165E-5-0.003883799752478905i      -1.6538625832430062E-4-0.0038805224046824325i     -3.3119070700433795E-5-0.0038837959636363146i     -1.6557549610740738E-4-0.003880945214411704i      -3.3050709890598776E-5-0.0038838035413182965i     -1.6519703918208654E-4-0.003880099599610891i      -3.305070989059875E-5-0.003883803541318297i       -1.6519703918208651E-4-0.003880099599610891i      -3.3119070700433815E-5-0.0038837959636363164i     -1.655754961074074E-4-0.003880945214411704i       -3.3084890576658064E-5-0.003883799752478904i      -1.6538625832429973E-4-0.0038805224046824325i     -3.308489057665793E-5-0.003883799752478905i       -1.6538625832429975E-4-0.0038805224046824325i     -3.308489057665795E-5-0.003883799752478905i       -1.6538625832429973E-4-0.0038805224046824325i     -3.308489057665804E-5-0.003883799752478905i       -1.6538625832429978E-4-0.0038805224046824325i     -3.305070989059869E-5-0.0038838035413182957i      -1.6519703918208662E-4-0.0038800995996108915i     -3.31190707004338E-5-0.0038837959636363146i       -1.6557549610740746E-4-0.003880945214411704i      -3.31190707004338E-5-0.003883795963636315i        -1.6557549610740735E-4-0.003880945214411704i      -3.3050709890598674E-5-0.0038838035413182965i     -1.6519703918208654E-4-0.0038800995996108906i     -3.308489057665826E-5-0.003883799752478905i       -1.653862583243006E-4-0.003880522404682433i       -3.308489057665815E-5-0.003883799752478905i       -1.6538625832430062E-4-0.0038805224046824325i     -3.308489057665819E-5-0.0038837997524789054i      -1.653862583243006E-4-0.003880522404682432i       -3.3084890576658165E-5-0.0038837997524789063i
0.5                       0.5                      -0.5                     -3.3084890576658165E-5-0.003883799752478905i      -1.653862583243006E-4-0.0038805224046824325i      -3.3084890576658165E-5-0.003883799752478905i      -1.653862583243006E-4-0.0038805224046824325i      -3.3084890576658165E-5-0.003883799752478905i      -1.653862583243006E-4-0.0038805224046824325i      -3.3084890576658165E-5-0.003883799752478905i      -1.653862583243006E-4-0.0038805224046824325i      -3.305070989059872E-5-0.0038838035413182952i      -1.6519703918208651E-4-0.0038800995996108906i     -3.305070989059878E-5-0.0038838035413182965i      -1.6519703918208657E-4-0.003880099599610891i      -3.3119070700433815E-5-0.0038837959636363164i     -1.6557549610740738E-4-0.0038809452144117048i     -3.311907070043381E-5-0.0038837959636363164i      -1.6557549610740738E-4-0.003880945214411704i      -3.3084890576658064E-5-0.003883799752478904i      -1.6538625832429973E-4-0.0038805224046824325i     -3.308489057665795E-5-0.003883799752478905i       -1.6538625832429973E-4-0.0038805224046824325i     -3.308489057665795E-5-0.003883799752478905i       -1.6538625832429973E-4-0.0038805224046824325i     -3.308489057665804E-5-0.003883799752478905i       -1.6538625832429973E-4-0.003880522404682433i      -3.311907070043377E-5-0.0038837959636363155i      -1.6557549610740746E-4-0.0038809452144117048i     -3.311907070043381E-5-0.0038837959636363146i      -1.6557549610740743E-4-0.0038809452144117043i     -3.305070989059873E-5-0.0038838035413182957i      -1.6519703918208651E-4-0.003880099599610891i      -3.305070989059868E-5-0.003883803541318296i       -1.6519703918208651E-4-0.00388009959961089i       -3.3084890576658274E-5-0.003883799752478905i      -1.653862583243006E-4-0.0038805224046824325i      -3.3084890576658165E-5-0.003883799752478905i      -1.653862583243006E-4-0.0038805224046824325i      -3.3084890576658206E-5-0.0038837997524789054i     -1.653862583243006E-4-0.003880522404682432i       -3.3084890576658165E-5-0.003883799752478906i
-0.5                      -0.5                     0.5                      -3.3084890576658145E-5-0.003883799752478905i      -1.6538625832430062E-4-0.0038805224046824325i     -3.3084890576658145E-5-0.003883799752478905i      -1.6538625832430062E-4-0.0038805224046824325i     -3.3084890576658145E-5-0.003883799752478905i      -1.6538625832430062E-4-0.0038805224046824325i     -3.3084890576658145E-5-0.003883799752478905i      -1.6538625832430062E-4-0.0038805224046824325i     -3.305070989059873E-5-0.0038838035413182957i      -1.6519703918208657E-4-0.003880099599610891i      -3.305070989059877E-5-0.0038838035413182965i      -1.6519703918208657E-4-0.0038800995996108906i     -3.311907070043381E-5-0.0038837959636363164i      -1.6557549610740732E-4-0.0038809452144117043i     -3.3119070700433815E-5-0.0038837959636363164i     -1.655754961074074E-4-0.003880945214411704i       -3.3084890576658084E-5-0.003883799752478904i      -1.653862583242997E-4-0.0038805224046824325i      -3.308489057665794E-5-0.003883799752478905i       -1.6538625832429975E-4-0.003880522404682433i      -3.308489057665794E-5-0.003883799752478905i       -1.6538625832429975E-4-0.003880522404682433i      -3.308489057665806E-5-0.003883799752478905i       -1.6538625832429978E-4-0.0038805224046824325i     -3.311907070043375E-5-0.003883795963636315i       -1.655754961074074E-4-0.0038809452144117048i      -3.31190707004338E-5-0.0038837959636363146i       -1.6557549610740746E-4-0.003880945214411704i      -3.3050709890598715E-5-0.0038838035413182952i     -1.651970391820866E-4-0.0038800995996108906i      -3.3050709890598674E-5-0.003883803541318296i      -1.6519703918208651E-4-0.0038800995996108906i     -3.308489057665826E-5-0.003883799752478905i       -1.6538625832430065E-4-0.0038805224046824325i     -3.3084890576658145E-5-0.003883799752478905i      -1.6538625832430062E-4-0.0038805224046824325i     -3.3084890576658186E-5-0.0038837997524789054i     -1.6538625832430057E-4-0.0038805224046824316i     -3.308489057665816E-5-0.003883799752478906i
0.5                       -0.5                     0.5                      -3.308489057665815E-5-0.003883799752478905i       -1.6538625832430062E-4-0.0038805224046824325i     -3.308489057665815E-5-0.003883799752478905i       -1.6538625832430062E-4-0.0038805224046824325i     -3.308489057665815E-5-0.003883799752478905i       -1.6538625832430062E-4-0.0038805224046824325i     -3.308489057665815E-5-0.003883799752478905i       -1.6538625832430062E-4-0.0038805224046824325i     -3.3119070700433795E-5-0.0038837959636363146i     -1.6557549610740738E-4-0.003880945214411704i      -3.305070989059878E-5-0.003883803541318296i       -1.6519703918208662E-4-0.003880099599610891i      -3.305070989059873E-5-0.003883803541318297i       -1.6519703918208651E-4-0.003880099599610891i      -3.311907070043381E-5-0.0038837959636363164i      -1.6557549610740738E-4-0.003880945214411704i      -3.3084890576658084E-5-0.003883799752478904i      -1.653862583242997E-4-0.0038805224046824325i      -3.308489057665795E-5-0.003883799752478905i       -1.6538625832429973E-4-0.0038805224046824325i     -3.308489057665794E-5-0.003883799752478905i       -1.6538625832429975E-4-0.003880522404682433i      -3.308489057665806E-5-0.003883799752478905i       -1.6538625832429973E-4-0.003880522404682433i      -3.305070989059868E-5-0.0038838035413182957i      -1.651970391820866E-4-0.003880099599610891i       -3.311907070043381E-5-0.0038837959636363146i      -1.6557549610740743E-4-0.0038809452144117043i     -3.3119070700433795E-5-0.0038837959636363146i     -1.6557549610740738E-4-0.003880945214411704i      -3.3050709890598674E-5-0.0038838035413182957i     -1.6519703918208651E-4-0.0038800995996108906i     -3.308489057665827E-5-0.003883799752478905i       -1.6538625832430065E-4-0.0038805224046824325i     -3.3084890576658165E-5-0.003883799752478905i      -1.6538625832430062E-4-0.0038805224046824325i     -3.308489057665819E-5-0.0038837997524789054i      -1.653862583243006E-4-0.003880522404682432i       -3.3084890576658165E-5-0.0038837997524789063i
-0.5                      0.5                      0.5                      -3.3084890576658165E-5-0.003883799752478905i      -1.6538625832430062E-4-0.0038805224046824325i     -3.3084890576658165E-5-0.003883799752478905i      -1.6538625832430062E-4-0.0038805224046824325i     -3.3084890576658165E-5-0.003883799752478905i      -1.6538625832430062E-4-0.0038805224046824325i     -3.3084890576658165E-5-0.003883799752478905i      -1.6538625832430062E-4-0.0038805224046824325i     -3.305070989059873E-5-0.0038838035413182957i      -1.6519703918208651E-4-0.003880099599610891i      -3.3119070700433835E-5-0.0038837959636363155i     -1.6557549610740735E-4-0.003880945214411704i      -3.3119070700433815E-5-0.0038837959636363164i     -1.6557549610740738E-4-0.0038809452144117048i     -3.305070989059874E-5-0.0038838035413182965i      -1.6519703918208657E-4-0.0038800995996108906i     -3.3084890576658084E-5-0.003883799752478904i      -1.6538625832429973E-4-0.0038805224046824325i     -3.308489057665794E-5-0.003883799752478905i       -1.6538625832429975E-4-0.003880522404682433i      -3.308489057665795E-5-0.003883799752478905i       -1.6538625832429973E-4-0.0038805224046824325i     -3.308489057665806E-5-0.003883799752478905i       -1.6538625832429978E-4-0.0038805224046824325i     -3.311907070043377E-5-0.0038837959636363155i      -1.6557549610740746E-4-0.0038809452144117048i     -3.305070989059872E-5-0.0038838035413182952i      -1.6519703918208662E-4-0.003880099599610891i      -3.305070989059873E-5-0.0038838035413182952i      -1.6519703918208657E-4-0.003880099599610891i      -3.311907070043375E-5-0.0038837959636363155i      -1.6557549610740732E-4-0.003880945214411704i      -3.308489057665826E-5-0.003883799752478905i       -1.653862583243006E-4-0.003880522404682433i       -3.308489057665815E-5-0.003883799752478905i       -1.6538625832430062E-4-0.0038805224046824325i     -3.308489057665819E-5-0.0038837997524789054i      -1.653862583243006E-4-0.003880522404682432i       -3.3084890576658165E-5-0.0038837997524789063i
0.5                       0.5                      0.5                      -3.3084890576658165E-5-0.003883799752478905i      -1.653862583243006E-4-0.0038805224046824325i      -3.3084890576658165E-5-0.003883799752478905i      -1.653862583243006E-4-0.0038805224046824325i      -3.3084890576658165E-5-0.003883799752478905i      -1.653862583243006E-4-0.0038805224046824325i      -3.3084890576658165E-5-0.003883799752478905i      -1.653862583243006E-4-0.0038805224046824325i      -3.3119070700433795E-5-0.0038837959636363146i     -1.6557549610740738E-4-0.003880945214411704i      -3.311907070043386E-5-0.0038837959636363164i      -1.655754961074074E-4-0.003880945214411704i       -3.305070989059874E-5-0.003883803541318297i       -1.6519703918208651E-4-0.003880099599610891i      -3.305070989059874E-5-0.003883803541318297i       -1.6519703918208651E-4-0.003880099599610891i      -3.3084890576658084E-5-0.003883799752478904i      -1.6538625832429973E-4-0.0038805224046824325i     -3.308489057665795E-5-0.003883799752478905i       -1.6538625832429973E-4-0.0038805224046824325i     -3.308489057665795E-5-0.003883799752478905i       -1.6538625832429973E-4-0.0038805224046824325i     -3.308489057665806E-5-0.003883799752478905i       -1.6538625832429973E-4-0.003880522404682433i      -3.305070989059871E-5-0.0038838035413182957i      -1.6519703918208662E-4-0.0038800995996108915i     -3.305070989059874E-5-0.0038838035413182952i      -1.651970391820866E-4-0.003880099599610891i       -3.31190707004338E-5-0.003883795963636315i        -1.6557549610740735E-4-0.003880945214411704i      -3.3119070700433754E-5-0.0038837959636363155i     -1.6557549610740732E-4-0.003880945214411704i      -3.3084890576658274E-5-0.003883799752478905i      -1.653862583243006E-4-0.0038805224046824325i      -3.3084890576658165E-5-0.003883799752478905i      -1.653862583243006E-4-0.0038805224046824325i      -3.3084890576658206E-5-0.0038837997524789054i     -1.653862583243006E-4-0.003880522404682432i       -3.3084890576658165E-5-0.003883799752478906i
