% Model:              pyfar_example_model_actd.mph
% Version:            COMSOL 6.0.0.405
% Date:               Aug 31 2022, 08:20
% Dimension:          3
% Nodes:              8
% Expressions:        3
% Description:        Total acoustic pressure
% Length unit:        m
% x                       y                        z                        pabe.p_t (Pa) @ freq=100                          pabe.p_t (Pa) @ freq=500                          pabe.p_t (Pa) @ freq=1000
-0.5                      -0.5                     -0.5                     -3.308489057665816E-5-0.003883799752478906i       -1.653862583243006E-4-0.0038805224046824316i      -0.0038702828550019573+3.3053375345799536E-4i
0.5                       -0.5                     -0.5                     -3.3084890576658165E-5-0.0038837997524789063i     -1.653862583243006E-4-0.003880522404682432i       -0.003870282855001957+3.3053375345799547E-4i
-0.5                      0.5                      -0.5                     -3.3084890576658165E-5-0.0038837997524789063i     -1.653862583243006E-4-0.003880522404682432i       -0.003870282855001957+3.3053375345799526E-4i
0.5                       0.5                      -0.5                     -3.3084890576658165E-5-0.003883799752478906i      -1.653862583243006E-4-0.003880522404682432i       -0.0038702828550019573+3.3053375345799526E-4i
-0.5                      -0.5                     0.5                      -3.308489057665816E-5-0.003883799752478906i       -1.653862583243006E-4-0.0038805224046824316i      -0.0038702828550019573+3.3053375345799536E-4i
0.5                       -0.5                     0.5                      -3.3084890576658165E-5-0.0038837997524789063i     -1.653862583243006E-4-0.003880522404682432i       -0.003870282855001957+3.3053375345799547E-4i
-0.5                      0.5                      0.5                      -3.3084890576658165E-5-0.0038837997524789063i     -1.653862583243006E-4-0.003880522404682432i       -0.003870282855001957+3.3053375345799526E-4i
0.5                       0.5                      0.5                      -3.3084890576658165E-5-0.003883799752478906i      -1.653862583243006E-4-0.003880522404682432i       -0.0038702828550019573+3.3053375345799526E-4i
